 Entering Gaussian System, Link 0=/CH/g16/g16
 Initial command:
 /CH/g16/l1.exe "/tmp/g16d3_AlCl4_2884047/Gau-2884065.inp" -scrdir="/tmp/g16d3_AlCl4_2884047/"
 Default is to use a total of  96 processors:
                               96 via shared-memory
                                1 via Linda
 Entering Link 1 = /CH/g16/l1.exe PID=   2884071.
  
 Copyright (c) 1988-2021, Gaussian, Inc.  All Rights Reserved.
  
 This is part of the Gaussian(R) 16 program.  It is based on
 the Gaussian(R) 09 system (copyright 2009, Gaussian, Inc.),
 the Gaussian(R) 03 system (copyright 2003, Gaussian, Inc.),
 the Gaussian(R) 98 system (copyright 1998, Gaussian, Inc.),
 the Gaussian(R) 94 system (copyright 1995, Gaussian, Inc.),
 the Gaussian 92(TM) system (copyright 1992, Gaussian, Inc.),
 the Gaussian 90(TM) system (copyright 1990, Gaussian, Inc.),
 the Gaussian 88(TM) system (copyright 1988, Gaussian, Inc.),
 the Gaussian 86(TM) system (copyright 1986, Carnegie Mellon
 University), and the Gaussian 82(TM) system (copyright 1983,
 Carnegie Mellon University). Gaussian is a federally registered
 trademark of Gaussian, Inc.
  
 This software contains proprietary and confidential information,
 including trade secrets, belonging to Gaussian, Inc.
  
 This software is provided under written license and may be
 used, copied, transmitted, or stored only in accord with that
 written license.
  
 The following legend is applicable only to US Government
 contracts under FAR:
  
                    RESTRICTED RIGHTS LEGEND
  
 Use, reproduction and disclosure by the US Government is
 subject to restrictions as set forth in subparagraphs (a)
 and (c) of the Commercial Computer Software - Restricted
 Rights clause in FAR 52.227-19.
  
 Gaussian, Inc.
 340 Quinnipiac St., Bldg. 40, Wallingford CT 06492
  
  
 ---------------------------------------------------------------
 Warning -- This program may not be used in any manner that
 competes with the business of Gaussian, Inc. or will provide
 assistance to any competitor of Gaussian, Inc.  The licensee
 of this program is prohibited from giving any competitor of
 Gaussian, Inc. access to this program.  By using this program,
 the user acknowledges that Gaussian, Inc. is engaged in the
 business of creating and licensing software in the field of
 computational chemistry and represents and warrants to the
 licensee that it is not a competitor of Gaussian, Inc. and that
 it will not use this program in any manner prohibited above.
 ---------------------------------------------------------------
  

 Cite this work as:
 Gaussian 16, Revision C.02,
 M. J. Frisch, G. W. Trucks, H. B. Schlegel, G. E. Scuseria, 
 M. A. Robb, J. R. Cheeseman, G. Scalmani, V. Barone, 
 G. A. Petersson, H. Nakatsuji, X. Li, M. Caricato, A. V. Marenich, 
 J. Bloino, B. G. Janesko, R. Gomperts, B. Mennucci, H. P. Hratchian, 
 J. V. Ortiz, A. F. Izmaylov, J. L. Sonnenberg, D. Williams-Young, 
 F. Ding, F. Lipparini, F. Egidi, J. Goings, B. Peng, A. Petrone, 
 T. Henderson, D. Ranasinghe, V. G. Zakrzewski, J. Gao, N. Rega, 
 G. Zheng, W. Liang, M. Hada, M. Ehara, K. Toyota, R. Fukuda, 
 J. Hasegawa, M. Ishida, T. Nakajima, Y. Honda, O. Kitao, H. Nakai, 
 T. Vreven, K. Throssell, J. A. Montgomery, Jr., J. E. Peralta, 
 F. Ogliaro, M. J. Bearpark, J. J. Heyd, E. N. Brothers, K. N. Kudin, 
 V. N. Staroverov, T. A. Keith, R. Kobayashi, J. Normand, 
 K. Raghavachari, A. P. Rendell, J. C. Burant, S. S. Iyengar, 
 J. Tomasi, M. Cossi, J. M. Millam, M. Klene, C. Adamo, R. Cammi, 
 J. W. Ochterski, R. L. Martin, K. Morokuma, O. Farkas, 
 J. B. Foresman, and D. J. Fox, Gaussian, Inc., Wallingford CT, 2019.
 
 ******************************************
 Gaussian 16:  ES64L-G16RevC.02  7-Dec-2021
                24-Jun-2026 
 ******************************************
 %chk=AlCl4.chk
 %nprocshared=8
 Will use up to    8 processors via shared memory.
 %mem=14GB
 ----------------------------------------------------------------------
 #p B3LYP/def2SVP EmpiricalDispersion=GD3BJ opt SCRF=(SMD,Solvent=Tetra
 hydrofuran) int=ultrafine
 ----------------------------------------------------------------------
 1/18=20,19=15,26=6,38=1/1,3;
 2/9=110,12=2,17=6,18=5,40=1/2;
 3/5=43,7=101,11=2,25=1,30=1,70=32201,71=1,72=20,74=-5,75=-5,124=41/1,2,3;
 4//1;
 5/5=2,38=5,53=20/2;
 6/7=2,8=2,9=2,10=2,28=1/1;
 7//1,2,3,16;
 1/18=20,19=15,26=6/3(2);
 2/9=110/2;
 99//99;
 2/9=110/2;
 3/5=43,7=101,11=2,25=1,30=1,70=32205,71=1,72=20,74=-5,75=-5,124=41/1,2,3;
 4/5=5,16=3,69=1/1;
 5/5=2,38=5,53=20/2;
 7//1,2,3,16;
 1/18=20,19=15,26=6/3(-5);
 2/9=110/2;
 6/7=2,8=2,9=2,10=2,19=2,28=1/1;
 99/9=1/99;
 Leave Link    1 at Wed Jun 24 00:57:37 2026, MaxMem=  1879048192 cpu:               4.3 elap:               0.1
 (Enter /CH/g16/l101.exe)
 -----
 AlCl4
 -----
 Symbolic Z-matrix:
 Charge = -1 Multiplicity = 1
 Al                    0.        0.        0. 
 Cl                    1.23      1.23      1.23 
 Cl                   -1.23     -1.23      1.23 
 Cl                    1.23     -1.23     -1.23 
 Cl                   -1.23      1.23     -1.23 
 
 ITRead=  0  0  0  0  0
 MicOpt= -1 -1 -1 -1 -1
 NAtoms=      5 NQM=        5 NQMF=       0 NMMI=      0 NMMIF=      0
                NMic=       0 NMicF=      0.
                    Isotopes and Nuclear Properties:
 (Nuclear quadrupole moments (NQMom) in fm**2, nuclear magnetic moments (NMagM)
  in nuclear magnetons)

  Atom         1           2           3           4           5
 IAtWgt=          27          35          35          35          35
 AtmWgt=  26.9815413  34.9688527  34.9688527  34.9688527  34.9688527
 NucSpn=           5           3           3           3           3
 AtZEff=  -0.0000000  -0.0000000  -0.0000000  -0.0000000  -0.0000000
 NQMom=   14.6600000  -8.1650000  -8.1650000  -8.1650000  -8.1650000
 NMagM=    3.6415040   0.8218740   0.8218740   0.8218740   0.8218740
 AtZNuc=  13.0000000  17.0000000  17.0000000  17.0000000  17.0000000
 Leave Link  101 at Wed Jun 24 00:57:38 2026, MaxMem=  1879048192 cpu:               0.4 elap:               0.4
 (Enter /CH/g16/l103.exe)

 GradGradGradGradGradGradGradGradGradGradGradGradGradGradGradGradGradGrad
 Berny optimization.
 Initialization pass.
                           ----------------------------
                           !    Initial Parameters    !
                           ! (Angstroms and Degrees)  !
 --------------------------                            --------------------------
 ! Name  Definition              Value          Derivative Info.                !
 --------------------------------------------------------------------------------
 ! R1    R(1,2)                  2.1304         estimate D2E/DX2                !
 ! R2    R(1,3)                  2.1304         estimate D2E/DX2                !
 ! R3    R(1,4)                  2.1304         estimate D2E/DX2                !
 ! R4    R(1,5)                  2.1304         estimate D2E/DX2                !
 ! A1    A(2,1,3)              109.4712         estimate D2E/DX2                !
 ! A2    A(2,1,4)              109.4712         estimate D2E/DX2                !
 ! A3    A(2,1,5)              109.4712         estimate D2E/DX2                !
 ! A4    A(3,1,4)              109.4712         estimate D2E/DX2                !
 ! A5    A(3,1,5)              109.4712         estimate D2E/DX2                !
 ! A6    A(4,1,5)              109.4712         estimate D2E/DX2                !
 ! D1    D(2,1,4,3)            120.0            estimate D2E/DX2                !
 ! D2    D(2,1,5,3)           -120.0            estimate D2E/DX2                !
 ! D3    D(2,1,5,4)            120.0            estimate D2E/DX2                !
 ! D4    D(3,1,5,4)           -120.0            estimate D2E/DX2                !
 --------------------------------------------------------------------------------
 Trust Radius=3.00D-01 FncErr=5.00D-06 GrdErr=5.00D-06 EigMax=2.50D+02 EigMin=1.00D-04
 Number of steps in this run=     24 maximum allowed number of steps=    100.
 GradGradGradGradGradGradGradGradGradGradGradGradGradGradGradGradGradGrad

 Leave Link  103 at Wed Jun 24 00:57:38 2026, MaxMem=  1879048192 cpu:               0.0 elap:               0.0
 (Enter /CH/g16/l202.exe)
                          Input orientation:                          
 ---------------------------------------------------------------------
 Center     Atomic      Atomic             Coordinates (Angstroms)
 Number     Number       Type             X           Y           Z
 ---------------------------------------------------------------------
      1         13           0        0.000000    0.000000    0.000000
      2         17           0        1.230000    1.230000    1.230000
      3         17           0       -1.230000   -1.230000    1.230000
      4         17           0        1.230000   -1.230000   -1.230000
      5         17           0       -1.230000    1.230000   -1.230000
 ---------------------------------------------------------------------
                    Distance matrix (angstroms):
                    1          2          3          4          5
     1  Al   0.000000
     2  Cl   2.130422   0.000000
     3  Cl   2.130422   3.478965   0.000000
     4  Cl   2.130422   3.478965   3.478965   0.000000
     5  Cl   2.130422   3.478965   3.478965   3.478965   0.000000
 Stoichiometry    AlCl4(1-)
 Framework group  TD[O(Al),4C3(Cl)]
 Deg. of freedom     1
 Full point group                 TD      NOp  24
 Largest Abelian subgroup         D2      NOp   4
 Largest concise Abelian subgroup D2      NOp   4
                         Standard orientation:                         
 ---------------------------------------------------------------------
 Center     Atomic      Atomic             Coordinates (Angstroms)
 Number     Number       Type             X           Y           Z
 ---------------------------------------------------------------------
      1         13           0        0.000000    0.000000    0.000000
      2         17           0        1.230000    1.230000    1.230000
      3         17           0       -1.230000   -1.230000    1.230000
      4         17           0        1.230000   -1.230000   -1.230000
      5         17           0       -1.230000    1.230000   -1.230000
 ---------------------------------------------------------------------
 Rotational constants (GHZ):           1.1940860           1.1940860           1.1940860
 Leave Link  202 at Wed Jun 24 00:57:38 2026, MaxMem=  1879048192 cpu:               0.0 elap:               0.0
 (Enter /CH/g16/l301.exe)
 Standard basis: def2SVP (5D, 7F)
 Ernie: Thresh=  0.10000D-02 Tol=  0.10000D-05 Strict=F.
 There are    26 symmetry adapted cartesian basis functions of A   symmetry.
 There are    23 symmetry adapted cartesian basis functions of B1  symmetry.
 There are    23 symmetry adapted cartesian basis functions of B2  symmetry.
 There are    23 symmetry adapted cartesian basis functions of B3  symmetry.
 There are    24 symmetry adapted basis functions of A   symmetry.
 There are    22 symmetry adapted basis functions of B1  symmetry.
 There are    22 symmetry adapted basis functions of B2  symmetry.
 There are    22 symmetry adapted basis functions of B3  symmetry.
    90 basis functions,   185 primitive gaussians,    95 cartesian basis functions
    41 alpha electrons       41 beta electrons
       nuclear repulsion energy       483.3320582307 Hartrees.
 IExCor=  402 DFT=T Ex+Corr=B3LYP ExCW=0 ScaHFX=  0.200000
 ScaDFX=  0.800000  0.720000  1.000000  0.810000 ScalE2=  1.000000  1.000000
 IRadAn=      5 IRanWt=     -1 IRanGd=            0 ICorTp=0 IEmpDi=141
 NAtoms=    5 NActive=    5 NUniq=    2 SFac= 4.00D+00 NAtFMM=   60 NAOKFM=F Big=F
 Integral buffers will be    131072 words long.
 Raffenetti 2 integral format.
 Two-electron integral symmetry is turned on.
 R6Disp:  Grimme-D3(BJ) Dispersion energy=       -0.0151831585 Hartrees.
 Nuclear repulsion after empirical dispersion term =      483.3168750722 Hartrees.
 ------------------------------------------------------------------------------
 Polarizable Continuum Model (PCM)
 =================================
 Model                : PCM.
 Atomic radii         : SMD-Coulomb.
 Polarization charges : Total charges.
 Charge compensation  : None.
 Solution method      : On-the-fly selection.
 Cavity type          : VdW (van der Waals Surface) (Alpha=1.000).
 Cavity algorithm     : GePol (No added spheres)
                        Default sphere list used, NSphG=    5.
                        Lebedev-Laikov grids with approx.  5.0 points / Ang**2.
                        Smoothing algorithm: York/Karplus (Gamma=1.0000).
                        Polarization charges: spherical gaussians, with
                                              point-specific exponents (IZeta= 3).
                        Self-potential: point-specific (ISelfS= 7).
                        Self-field    : sphere-specific E.n sum rule (ISelfD= 2).
 1st derivatives      : Analytical E(r).r(x)/FMM algorithm (CHGder, D1EAlg=3).
                        Cavity 1st derivative terms included.
 Solvent              : TetraHydroFuran, Eps=   7.425700 Eps(inf)=   1.974025
 ------------------------------------------------------------------------------
 Spheres list:
 ISph  on   Nord     Re0    Alpha      Xe            Ye            Ze
    1  Al      1    2.3000  1.000      0.000000      0.000000      0.000000
    2  Cl      2    2.3800  1.000      1.230000      1.230000      1.230000
    3  Cl      3    2.3800  1.000     -1.230000     -1.230000      1.230000
    4  Cl      4    2.3800  1.000      1.230000     -1.230000     -1.230000
    5  Cl      5    2.3800  1.000     -1.230000      1.230000     -1.230000
 ------------------------------------------------------------------------------
 GePol: Number of generator spheres                  =       5
 GePol: Total number of spheres                      =       5
 GePol: Number of exposed spheres                    =       5 (100.00%)
 GePol: Number of points                             =    1256
 GePol: Average weight of points                     =       0.15
 GePol: Minimum weight of points                     =   0.50D-05
 GePol: Maximum weight of points                     =    0.18138
 GePol: Number of points with low weight             =      36
 GePol: Fraction of low-weight points (<1% of avg)   =       2.87%
 GePol: Cavity surface area                          =    189.613 Ang**2
 GePol: Cavity volume                                =    194.966 Ang**3
 ------------------------------------------------------------------------------
 Atomic radii for non-electrostatic terms: SMD-CDS.
 ------------------------------------------------------------------------------
 PCM non-electrostatic energy =        -0.0040239563 Hartrees.
 Nuclear repulsion after PCM non-electrostatic terms =      483.3128511159 Hartrees.
 Leave Link  301 at Wed Jun 24 00:57:38 2026, MaxMem=  1879048192 cpu:               0.1 elap:               0.0
 (Enter /CH/g16/l302.exe)
 NPDir=0 NMtPBC=     1 NCelOv=     1 NCel=       1 NClECP=     1 NCelD=      1
         NCelK=      1 NCelE2=     1 NClLst=     1 CellRange=     0.0.
 One-electron integrals computed using PRISM.
 One-electron integral symmetry used in STVInt
  24 Symmetry operations used in ECPInt.
 ECPInt:  NShTT=     820 NPrTT=    4210 LenC2=     781 LenP2D=    2810.
 LDataN:  DoStor=T MaxTD1= 4 Len=   56
 NBasis=    90 RedAO= T EigKep=  2.47D-02  NBF=    24    22    22    22
 NBsUse=    90 1.00D-06 EigRej= -1.00D+00 NBFU=    24    22    22    22
 Precomputing XC quadrature grid using
 IXCGrd= 4 IRadAn=           5 IRanWt=          -1 IRanGd=           0 AccXCQ= 0.00D+00.
 Generated NRdTot=       0 NPtTot=           0 NUsed=           0 NTot=          32
 NSgBfM=    94    94    94    94    94 MxSgAt=     5 MxSgA2=     5.
 Leave Link  302 at Wed Jun 24 00:57:38 2026, MaxMem=  1879048192 cpu:               0.4 elap:               0.1
 (Enter /CH/g16/l303.exe)
 DipDrv:  MaxL=1.
 Leave Link  303 at Wed Jun 24 00:57:38 2026, MaxMem=  1879048192 cpu:               0.0 elap:               0.0
 (Enter /CH/g16/l401.exe)
 ExpMin= 5.44D-02 ExpMax= 1.04D+04 ExpMxC= 1.57D+03 IAcc=3 IRadAn=         5 AccDes= 0.00D+00
 Harris functional with IExCor=  402 and IRadAn=       5 diagonalized for initial guess.
 HarFok:  IExCor=  402 AccDes= 0.00D+00 IRadAn=         5 IDoV= 1 UseB2=F ITyADJ=14
 ICtDFT=  3500011 ScaDFX=  1.000000  1.000000  1.000000  1.000000
 FoFCou: FMM=F IPFlag=           0 FMFlag=      100000 FMFlg1=           0
         NFxFlg=           0 DoJE=T BraDBF=F KetDBF=T FulRan=T
         wScrn=  0.000000 ICntrl=       500 IOpCl=  0 I1Cent=   200000004 NGrid=           0
         NMat0=    1 NMatS0=      1 NMatT0=    0 NMatD0=    1 NMtDS0=    0 NMtDT0=    0
 Petite list used in FoFCou.
 Harris En= -2082.78034675256    
 JPrj=0 DoOrth=F DoCkMO=F.
 Initial guess orbital symmetries:
       Occupied  (A1) (T2) (T2) (T2) (A1) (A1) (T2) (T2) (T2) (A1)
                 (T2) (T2) (T2) (T2) (T2) (T2) (T1) (T1) (T1) (E)
                 (E) (A1) (T2) (T2) (T2) (A1) (T2) (T2) (T2) (A1)
                 (T2) (T2) (T2) (E) (E) (T2) (T2) (T2) (T1) (T1)
                 (T1)
       Virtual   (A1) (T2) (T2) (T2) (A1) (T2) (T2) (T2) (E) (E)
                 (T2) (T2) (T2) (T2) (T2) (T2) (A1) (T1) (T1) (T1)
                 (E) (E) (T2) (T2) (T2) (T1) (T1) (T1) (A1) (T2)
                 (T2) (T2) (E) (E) (T1) (T1) (T1) (T2) (T2) (T2)
                 (E) (E) (T2) (T2) (T2) (A1) (T2) (T2) (T2)
 The electronic state of the initial guess is 1-A1.
 Leave Link  401 at Wed Jun 24 00:57:38 2026, MaxMem=  1879048192 cpu:               0.5 elap:               0.1
 (Enter /CH/g16/l502.exe)
 Keep R1 ints in memory in symmetry-blocked form, NReq=15746091.
 FoFCou: FMM=F IPFlag=           0 FMFlag=           0 FMFlg1=           0
         NFxFlg=           0 DoJE=F BraDBF=F KetDBF=F FulRan=T
         wScrn=  0.000000 ICntrl=       600 IOpCl=  0 I1Cent=           0 NGrid=           0
         NMat0=    1 NMatS0=   4095 NMatT0=    0 NMatD0=    1 NMtDS0=    0 NMtDT0=    0
 Petite list used in FoFCou.
 Closed shell SCF:
 Using DIIS extrapolation, IDIIS=  1040.
 NGot=  1879048192 LenX=  1876918143 LenY=  1876908677
 Requested convergence on RMS density matrix=1.00D-08 within 128 cycles.
 Requested convergence on MAX density matrix=1.00D-06.
 Requested convergence on             energy=1.00D-06.
 No special actions if energy rises.

 Cycle   1  Pass 1  IDiag  1:
 Inv3:  Mode=1 IEnd=     4732608.
 Iteration    1 A*A^-1 deviation from unit magnitude is 3.00D-15 for     11.
 Iteration    1 A*A^-1 deviation from orthogonality  is 1.67D-15 for    937    619.
 Iteration    1 A^-1*A deviation from unit magnitude is 3.00D-15 for      7.
 Iteration    1 A^-1*A deviation from orthogonality  is 1.89D-15 for    931    625.
 E= -2083.09630020199    
 DIIS: error= 1.79D-02 at cycle   1 NSaved=   1.
 NSaved= 1 IEnMin= 1 EnMin= -2083.09630020199     IErMin= 1 ErrMin= 1.79D-02
 ErrMax= 1.79D-02  0.00D+00 EMaxC= 1.00D-01 BMatC= 2.87D-02 BMatP= 2.87D-02
 IDIUse=3 WtCom= 8.21D-01 WtEn= 1.79D-01
 Coeff-Com:  0.100D+01
 Coeff-En:   0.100D+01
 Coeff:      0.100D+01
 Gap=     0.327 Goal=   None    Shift=    0.000
 GapD=    0.327 DampG=1.000 DampE=0.500 DampFc=0.5000 IDamp=-1.
 Damping current iteration by 5.00D-01
 RMSDP=2.86D-03 MaxDP=5.81D-02              OVMax= 2.84D-02

 Cycle   2  Pass 1  IDiag  1:
 E= -2083.10573655487     Delta-E=       -0.009436352872 Rises=F Damp=T
 DIIS: error= 5.90D-03 at cycle   2 NSaved=   2.
 NSaved= 2 IEnMin= 2 EnMin= -2083.10573655487     IErMin= 2 ErrMin= 5.90D-03
 ErrMax= 5.90D-03  0.00D+00 EMaxC= 1.00D-01 BMatC= 5.03D-03 BMatP= 2.87D-02
 IDIUse=3 WtCom= 9.41D-01 WtEn= 5.90D-02
 Coeff-Com: -0.406D+00 0.141D+01
 Coeff-En:   0.000D+00 0.100D+01
 Coeff:     -0.382D+00 0.138D+01
 Gap=     0.342 Goal=   None    Shift=    0.000
 RMSDP=5.69D-04 MaxDP=1.44D-02 DE=-9.44D-03 OVMax= 2.38D-02

 Cycle   3  Pass 1  IDiag  1:
 E= -2083.11331608647     Delta-E=       -0.007579531607 Rises=F Damp=F
 DIIS: error= 2.45D-03 at cycle   3 NSaved=   3.
 NSaved= 3 IEnMin= 3 EnMin= -2083.11331608647     IErMin= 3 ErrMin= 2.45D-03
 ErrMax= 2.45D-03  0.00D+00 EMaxC= 1.00D-01 BMatC= 8.51D-04 BMatP= 5.03D-03
 IDIUse=3 WtCom= 9.76D-01 WtEn= 2.45D-02
 Coeff-Com: -0.218D+00 0.520D+00 0.698D+00
 Coeff-En:   0.000D+00 0.000D+00 0.100D+01
 Coeff:     -0.213D+00 0.507D+00 0.705D+00
 Gap=     0.338 Goal=   None    Shift=    0.000
 RMSDP=4.79D-04 MaxDP=1.60D-02 DE=-7.58D-03 OVMax= 9.15D-03

 Cycle   4  Pass 1  IDiag  1:
 E= -2083.11411750903     Delta-E=       -0.000801422553 Rises=F Damp=F
 DIIS: error= 8.52D-04 at cycle   4 NSaved=   4.
 NSaved= 4 IEnMin= 4 EnMin= -2083.11411750903     IErMin= 4 ErrMin= 8.52D-04
 ErrMax= 8.52D-04  0.00D+00 EMaxC= 1.00D-01 BMatC= 6.70D-05 BMatP= 8.51D-04
 IDIUse=3 WtCom= 9.91D-01 WtEn= 8.52D-03
 Coeff-Com: -0.887D-01 0.202D+00 0.338D+00 0.549D+00
 Coeff-En:   0.000D+00 0.000D+00 0.000D+00 0.100D+01
 Coeff:     -0.879D-01 0.201D+00 0.335D+00 0.552D+00
 Gap=     0.338 Goal=   None    Shift=    0.000
 RMSDP=1.09D-04 MaxDP=4.13D-03 DE=-8.01D-04 OVMax= 2.32D-03

 Cycle   5  Pass 1  IDiag  1:
 E= -2083.11419710103     Delta-E=       -0.000079592000 Rises=F Damp=F
 DIIS: error= 4.32D-05 at cycle   5 NSaved=   5.
 NSaved= 5 IEnMin= 5 EnMin= -2083.11419710103     IErMin= 5 ErrMin= 4.32D-05
 ErrMax= 4.32D-05  0.00D+00 EMaxC= 1.00D-01 BMatC= 2.37D-07 BMatP= 6.70D-05
 IDIUse=1 WtCom= 1.00D+00 WtEn= 0.00D+00
 Coeff-Com: -0.114D-01 0.244D-01 0.405D-01 0.105D+00 0.841D+00
 Coeff:     -0.114D-01 0.244D-01 0.405D-01 0.105D+00 0.841D+00
 Gap=     0.338 Goal=   None    Shift=    0.000
 RMSDP=8.21D-06 MaxDP=3.26D-04 DE=-7.96D-05 OVMax= 1.47D-04

 Cycle   6  Pass 1  IDiag  1:
 E= -2083.11419737447     Delta-E=       -0.000000273443 Rises=F Damp=F
 DIIS: error= 3.68D-06 at cycle   6 NSaved=   6.
 NSaved= 6 IEnMin= 6 EnMin= -2083.11419737447     IErMin= 6 ErrMin= 3.68D-06
 ErrMax= 3.68D-06  0.00D+00 EMaxC= 1.00D-01 BMatC= 1.89D-09 BMatP= 2.37D-07
 IDIUse=1 WtCom= 1.00D+00 WtEn= 0.00D+00
 Coeff-Com:  0.717D-03-0.180D-02-0.425D-02-0.331D-02 0.563D-01 0.952D+00
 Coeff:      0.717D-03-0.180D-02-0.425D-02-0.331D-02 0.563D-01 0.952D+00
 Gap=     0.338 Goal=   None    Shift=    0.000
 RMSDP=7.12D-07 MaxDP=1.61D-05 DE=-2.73D-07 OVMax= 5.45D-06

 Cycle   7  Pass 1  IDiag  1:
 E= -2083.11419737633     Delta-E=       -0.000000001865 Rises=F Damp=F
 DIIS: error= 2.19D-07 at cycle   7 NSaved=   7.
 NSaved= 7 IEnMin= 7 EnMin= -2083.11419737633     IErMin= 7 ErrMin= 2.19D-07
 ErrMax= 2.19D-07  0.00D+00 EMaxC= 1.00D-01 BMatC= 8.35D-12 BMatP= 1.89D-09
 IDIUse=1 WtCom= 1.00D+00 WtEn= 0.00D+00
 Coeff-Com:  0.574D-04-0.128D-03-0.270D-03-0.422D-03-0.486D-02 0.312D-02
 Coeff-Com:  0.100D+01
 Coeff:      0.574D-04-0.128D-03-0.270D-03-0.422D-03-0.486D-02 0.312D-02
 Coeff:      0.100D+01
 Gap=     0.338 Goal=   None    Shift=    0.000
 RMSDP=5.76D-08 MaxDP=2.25D-06 DE=-1.87D-09 OVMax= 1.03D-06

 Cycle   8  Pass 1  IDiag  1:
 E= -2083.11419737632     Delta-E=        0.000000000018 Rises=F Damp=F
 DIIS: error= 1.78D-08 at cycle   8 NSaved=   8.
 NSaved= 8 IEnMin= 7 EnMin= -2083.11419737633     IErMin= 8 ErrMin= 1.78D-08
 ErrMax= 1.78D-08  0.00D+00 EMaxC= 1.00D-01 BMatC= 4.15D-14 BMatP= 8.35D-12
 IDIUse=1 WtCom= 1.00D+00 WtEn= 0.00D+00
 Coeff-Com: -0.566D-07 0.149D-05 0.839D-05-0.591D-05-0.445D-03-0.476D-02
 Coeff-Com:  0.758D-01 0.929D+00
 Coeff:     -0.566D-07 0.149D-05 0.839D-05-0.591D-05-0.445D-03-0.476D-02
 Coeff:      0.758D-01 0.929D+00
 Gap=     0.338 Goal=   None    Shift=    0.000
 RMSDP=3.39D-09 MaxDP=1.41D-07 DE= 1.77D-11 OVMax= 6.53D-08

 Error on total polarization charges =  0.00048
 SCF Done:  E(RB3LYP) =  -2083.11419738     A.U. after    8 cycles
            NFock=  8  Conv=0.34D-08     -V/T= 2.0023
 KE= 2.078349779989D+03 PE=-5.938283722262D+03 EE= 1.293506893781D+03
 SMD-CDS (non-electrostatic) energy       (kcal/mol) =      -2.53
 (included in total energy above)
 Leave Link  502 at Wed Jun 24 00:57:39 2026, MaxMem=  1879048192 cpu:               7.3 elap:               1.1
 (Enter /CH/g16/l601.exe)
 Copying SCF densities to generalized density rwf, IOpCl= 0 IROHF=0.

 **********************************************************************

            Population analysis using the SCF Density.

 **********************************************************************

 Orbital symmetries:
       Occupied  (A1) (T2) (T2) (T2) (A1) (A1) (T2) (T2) (T2) (T2)
                 (T2) (T2) (A1) (T2) (T2) (T2) (T1) (T1) (T1) (E)
                 (E) (A1) (T2) (T2) (T2) (A1) (T2) (T2) (T2) (A1)
                 (T2) (T2) (T2) (E) (E) (T2) (T2) (T2) (T1) (T1)
                 (T1)
       Virtual   (A1) (T2) (T2) (T2) (A1) (T2) (T2) (T2) (E) (E)
                 (T2) (T2) (T2) (T2) (T2) (T2) (A1) (T1) (T1) (T1)
                 (E) (E) (T2) (T2) (T2) (T1) (T1) (T1) (A1) (T2)
                 (T2) (T2) (E) (E) (T1) (T1) (T1) (T2) (T2) (T2)
                 (E) (E) (T2) (T2) (T2) (A1) (T2) (T2) (T2)
 The electronic state is 1-A1.
 Alpha  occ. eigenvalues -- -101.42853-101.42843-101.42843-101.42843 -56.03558
 Alpha  occ. eigenvalues --   -9.38425  -9.38419  -9.38419  -9.38419  -7.14907
 Alpha  occ. eigenvalues --   -7.14907  -7.14907  -7.14907  -7.14523  -7.14523
 Alpha  occ. eigenvalues --   -7.14523  -7.14521  -7.14521  -7.14521  -7.14520
 Alpha  occ. eigenvalues --   -7.14520  -4.13105  -2.68710  -2.68710  -2.68710
 Alpha  occ. eigenvalues --   -0.76668  -0.74363  -0.74363  -0.74363  -0.39672
 Alpha  occ. eigenvalues --   -0.32887  -0.32887  -0.32887  -0.28296  -0.28296
 Alpha  occ. eigenvalues --   -0.27599  -0.27599  -0.27599  -0.25402  -0.25402
 Alpha  occ. eigenvalues --   -0.25402
 Alpha virt. eigenvalues --    0.08428   0.13236   0.13236   0.13236   0.13755
 Alpha virt. eigenvalues --    0.32095   0.32095   0.32095   0.40681   0.40681
 Alpha virt. eigenvalues --    0.51330   0.51330   0.51330   0.65022   0.65022
 Alpha virt. eigenvalues --    0.65022   0.76377   0.81180   0.81180   0.81180
 Alpha virt. eigenvalues --    0.83290   0.83290   0.83353   0.83353   0.83353
 Alpha virt. eigenvalues --    0.83588   0.83588   0.83588   0.86121   0.87501
 Alpha virt. eigenvalues --    0.87501   0.87501   0.88085   0.88085   0.98930
 Alpha virt. eigenvalues --    0.98930   0.98930   1.02968   1.02968   1.02968
 Alpha virt. eigenvalues --    1.09759   1.09759   1.16114   1.16114   1.16114
 Alpha virt. eigenvalues --    1.37653   1.40365   1.40365   1.40365
          Condensed to atoms (all electrons):
               1          2          3          4          5
     1  Al  11.054411   0.344148   0.344148   0.344148   0.344148
     2  Cl   0.344148  17.097184  -0.016361  -0.016361  -0.016361
     3  Cl   0.344148  -0.016361  17.097184  -0.016361  -0.016361
     4  Cl   0.344148  -0.016361  -0.016361  17.097184  -0.016361
     5  Cl   0.344148  -0.016361  -0.016361  -0.016361  17.097184
 Mulliken charges:
               1
     1  Al   0.568995
     2  Cl  -0.392249
     3  Cl  -0.392249
     4  Cl  -0.392249
     5  Cl  -0.392249
 Sum of Mulliken charges =  -1.00000
 Mulliken charges with hydrogens summed into heavy atoms:
               1
     1  Al   0.568995
     2  Cl  -0.392249
     3  Cl  -0.392249
     4  Cl  -0.392249
     5  Cl  -0.392249
 Electronic spatial extent (au):  <R**2>=           1264.5766
 Charge=             -1.0000 electrons
 Dipole moment (field-independent basis, Debye):
    X=              0.0000    Y=              0.0000    Z=              0.0000  Tot=              0.0000
 Quadrupole moment (field-independent basis, Debye-Ang):
   XX=            -72.8260   YY=            -72.8260   ZZ=            -72.8260
   XY=             -0.0000   XZ=              0.0000   YZ=             -0.0000
 Traceless Quadrupole moment (field-independent basis, Debye-Ang):
   XX=             -0.0000   YY=              0.0000   ZZ=              0.0000
   XY=             -0.0000   XZ=              0.0000   YZ=             -0.0000
 Octapole moment (field-independent basis, Debye-Ang**2):
  XXX=             -0.0000  YYY=              0.0000  ZZZ=              0.0000  XYY=             -0.0000
  XXY=              0.0000  XXZ=             -0.0000  XZZ=              0.0000  YZZ=             -0.0000
  YYZ=              0.0000  XYZ=            -10.2464
 Hexadecapole moment (field-independent basis, Debye-Ang**3):
 XXXX=           -555.5037 YYYY=           -555.5037 ZZZZ=           -555.5037 XXXY=             -0.0000
 XXXZ=             -0.0000 YYYX=              0.0000 YYYZ=             -0.0000 ZZZX=             -0.0000
 ZZZY=             -0.0000 XXYY=           -190.2879 XXZZ=           -190.2879 YYZZ=           -190.2879
 XXYZ=             -0.0000 YYXZ=              0.0000 ZZXY=              0.0000
 N-N= 4.833128511159D+02 E-N=-5.938283721945D+03  KE= 2.078349779989D+03
 Symmetry A    KE= 6.388655538203D+02
 Symmetry B1   KE= 4.798280753897D+02
 Symmetry B2   KE= 4.798280753897D+02
 Symmetry B3   KE= 4.798280753897D+02
 No NMR shielding tensors so no spin-rotation constants.
 Leave Link  601 at Wed Jun 24 00:57:39 2026, MaxMem=  1879048192 cpu:               0.3 elap:               0.1
 (Enter /CH/g16/l701.exe)
 ... and contract with generalized density number  0.
 Compute integral first derivatives.
 R6Disp: Adding Grimme-D3(BJ) dispersion energy 1st derivatives to the gradient.
  24 Symmetry operations used in ECPInt.
 ECPInt:  NShTT=     820 NPrTT=    4210 LenC2=     781 LenP2D=    2810.
 LDataN:  DoStor=T MaxTD1= 5 Len=  102
 D1PCM: PCM CHGder 1st derivatives, ID1Alg=3 FixD1E=F DoIter=F DoCFld=F I1PDM=0.
 GePol: Maximum number of non-zero 1st derivatives   =     352
 Leave Link  701 at Wed Jun 24 00:57:39 2026, MaxMem=  1879048192 cpu:               1.8 elap:               0.3
 (Enter /CH/g16/l702.exe)
 L702 exits ... SP integral derivatives will be done elsewhere.
 Leave Link  702 at Wed Jun 24 00:57:39 2026, MaxMem=  1879048192 cpu:               0.0 elap:               0.0
 (Enter /CH/g16/l703.exe)
 Integral derivatives from FoFJK, PRISM(SPDF).
 Compute integral first derivatives, UseDBF=F ICtDFT=           0.
 Calling FoFJK, ICntrl=      2127 FMM=F ISym2X=1 I1Cent= 0 IOpClX= 0 NMat=1 NMatS=1 NMatT=0.
 FoFJK:  IHMeth= 1 ICntrl=    2127 DoSepK=F KAlg= 0 I1Cent=           0 FoldK=F
 IRaf=         0 NMat=       1 IRICut=       1 DoRegI=T DoRafI=F ISym2E= 1 IDoP0=0 IntGTp=1.
 FoFCou: FMM=F IPFlag=           0 FMFlag=      100000 FMFlg1=         800
         NFxFlg=           0 DoJE=F BraDBF=F KetDBF=F FulRan=T
         wScrn=  0.000000 ICntrl=      2127 IOpCl=  0 I1Cent=           0 NGrid=           0
         NMat0=    1 NMatS0=      1 NMatT0=    0 NMatD0=    1 NMtDS0=    0 NMtDT0=    0
 Petite list used in FoFCou.
 Leave Link  703 at Wed Jun 24 00:57:40 2026, MaxMem=  1879048192 cpu:               0.6 elap:               0.1
 (Enter /CH/g16/l716.exe)
 Dipole        =-3.10862447D-15 3.55271368D-15-3.99680289D-15
 ***** Axes restored to original set *****
 -------------------------------------------------------------------
 Center     Atomic                   Forces (Hartrees/Bohr)
 Number     Number              X              Y              Z
 -------------------------------------------------------------------
      1       13          -0.000000000   -0.000000000   -0.000000000
      2       17           0.006579474    0.006579474    0.006579474
      3       17          -0.006579474   -0.006579474    0.006579474
      4       17           0.006579474   -0.006579474   -0.006579474
      5       17          -0.006579474    0.006579474   -0.006579474
 -------------------------------------------------------------------
 Cartesian Forces:  Max     0.006579474 RMS     0.005884861
 Leave Link  716 at Wed Jun 24 00:57:40 2026, MaxMem=  1879048192 cpu:               0.0 elap:               0.0
 (Enter /CH/g16/l103.exe)

 GradGradGradGradGradGradGradGradGradGradGradGradGradGradGradGradGradGrad
 Berny optimization.
 FormGI is forming the generalized inverse of G from B-inverse, IUseBI=4.
 Internal  Forces:  Max     0.011395983 RMS     0.006091409
 Search for a local minimum.
 Step number   1 out of a maximum of   24
 All quantities printed in internal units (Hartrees-Bohrs-Radians)
 RMS Force = .60914D-02 SwitMx=.10000D-02 MixMth= 1
 Mixed Optimization -- RFO/linear search
 Second derivative matrix not updated -- first step.
 The second derivative matrix:
                          R1        R2        R3        R4        A1
           R1           0.23103
           R2           0.00000   0.23103
           R3           0.00000   0.00000   0.23103
           R4           0.00000   0.00000   0.00000   0.23103
           A1           0.00000   0.00000   0.00000   0.00000   0.25000
           A2           0.00000   0.00000   0.00000   0.00000   0.00000
           A3           0.00000   0.00000   0.00000   0.00000   0.00000
           A4           0.00000   0.00000   0.00000   0.00000   0.00000
           A5           0.00000   0.00000   0.00000   0.00000   0.00000
           A6           0.00000   0.00000   0.00000   0.00000   0.00000
           D1           0.00000   0.00000   0.00000   0.00000   0.00000
           D2           0.00000   0.00000   0.00000   0.00000   0.00000
           D3           0.00000   0.00000   0.00000   0.00000   0.00000
           D4           0.00000   0.00000   0.00000   0.00000   0.00000
                          A2        A3        A4        A5        A6
           A2           0.25000
           A3           0.00000   0.25000
           A4           0.00000   0.00000   0.25000
           A5           0.00000   0.00000   0.00000   0.25000
           A6           0.00000   0.00000   0.00000   0.00000   0.25000
           D1           0.00000   0.00000   0.00000   0.00000   0.00000
           D2           0.00000   0.00000   0.00000   0.00000   0.00000
           D3           0.00000   0.00000   0.00000   0.00000   0.00000
           D4           0.00000   0.00000   0.00000   0.00000   0.00000
                          D1        D2        D3        D4
           D1           0.02351
           D2           0.00000   0.02351
           D3           0.00000   0.00000   0.02351
           D4           0.00000   0.00000   0.00000   0.02351
 ITU=  0
     Eigenvalues ---    0.09320   0.10229   0.14430   0.23103   0.23103
     Eigenvalues ---    0.23103   0.23103   0.25000   0.25000
 RFO step:  Lambda=-2.22705027D-03 EMin= 9.31995920D-02
 Linear search not attempted -- first point.
 Iteration  1 RMS(Cart)=  0.02611463 RMS(Int)=  0.00000000
 Iteration  2 RMS(Cart)=  0.00000000 RMS(Int)=  0.00000000
 ITry= 1 IFail=0 DXMaxC= 2.82D-02 DCOld= 1.00D+10 DXMaxT= 3.00D-01 DXLimC= 3.00D+00 Rises=F
 ClnCor:  largest displacement from symmetrization is 1.41D-12 for atom     4.
 Variable       Old X    -DE/DX   Delta X   Delta X   Delta X     New X
                                 (Linear)    (Quad)   (Total)
    R1        4.02592   0.01140   0.00000   0.04886   0.04886   4.07477
    R2        4.02592   0.01140   0.00000   0.04886   0.04886   4.07477
    R3        4.02592   0.01140   0.00000   0.04886   0.04886   4.07477
    R4        4.02592   0.01140   0.00000   0.04886   0.04886   4.07477
    A1        1.91063  -0.00000   0.00000  -0.00000   0.00000   1.91063
    A2        1.91063  -0.00000   0.00000  -0.00000  -0.00000   1.91063
    A3        1.91063   0.00000   0.00000  -0.00000   0.00000   1.91063
    A4        1.91063   0.00000   0.00000   0.00000   0.00000   1.91063
    A5        1.91063  -0.00000   0.00000  -0.00000   0.00000   1.91063
    A6        1.91063  -0.00000   0.00000   0.00000   0.00000   1.91063
    D1        2.09440   0.00000   0.00000   0.00000   0.00000   2.09440
    D2       -2.09440   0.00000   0.00000   0.00000   0.00000  -2.09440
    D3        2.09440  -0.00000   0.00000  -0.00000   0.00000   2.09440
    D4       -2.09440  -0.00000   0.00000  -0.00000   0.00000  -2.09440
         Item               Value     Threshold  Converged?
 Maximum Force            0.011396     0.000450     NO 
 RMS     Force            0.006091     0.000300     NO 
 Maximum Displacement     0.028207     0.001800     NO 
 RMS     Displacement     0.026115     0.001200     NO 
 Predicted change in Energy=-1.124156D-03
 Lowest energy point so far.  Saving SCF results.
 GradGradGradGradGradGradGradGradGradGradGradGradGradGradGradGradGradGrad

 Leave Link  103 at Wed Jun 24 00:57:40 2026, MaxMem=  1879048192 cpu:               0.0 elap:               0.0
 (Enter /CH/g16/l202.exe)
                          Input orientation:                          
 ---------------------------------------------------------------------
 Center     Atomic      Atomic             Coordinates (Angstroms)
 Number     Number       Type             X           Y           Z
 ---------------------------------------------------------------------
      1         13           0       -0.000000    0.000000   -0.000000
      2         17           0        1.244927    1.244927    1.244927
      3         17           0       -1.244927   -1.244927    1.244927
      4         17           0        1.244927   -1.244927   -1.244927
      5         17           0       -1.244927    1.244927   -1.244927
 ---------------------------------------------------------------------
                    Distance matrix (angstroms):
                    1          2          3          4          5
     1  Al   0.000000
     2  Cl   2.156276   0.000000
     3  Cl   2.156276   3.521184   0.000000
     4  Cl   2.156276   3.521184   3.521184   0.000000
     5  Cl   2.156276   3.521184   3.521184   3.521184   0.000000
 Stoichiometry    AlCl4(1-)
 Framework group  TD[O(Al),4C3(Cl)]
 Deg. of freedom     1
 Full point group                 TD      NOp  24
 RotChk:  IX=0 Diff= 5.86D-16
 Largest Abelian subgroup         D2      NOp   4
 Largest concise Abelian subgroup D2      NOp   4
                         Standard orientation:                         
 ---------------------------------------------------------------------
 Center     Atomic      Atomic             Coordinates (Angstroms)
 Number     Number       Type             X           Y           Z
 ---------------------------------------------------------------------
      1         13           0        0.000000    0.000000    0.000000
      2         17           0        1.244927    1.244927    1.244927
      3         17           0       -1.244927   -1.244927    1.244927
      4         17           0        1.244927   -1.244927   -1.244927
      5         17           0       -1.244927    1.244927   -1.244927
 ---------------------------------------------------------------------
 Rotational constants (GHZ):           1.1656238           1.1656238           1.1656238
 Leave Link  202 at Wed Jun 24 00:57:40 2026, MaxMem=  1879048192 cpu:               0.0 elap:               0.0
 (Enter /CH/g16/l301.exe)
 Standard basis: def2SVP (5D, 7F)
 Ernie: Thresh=  0.10000D-02 Tol=  0.10000D-05 Strict=F.
 There are    26 symmetry adapted cartesian basis functions of A   symmetry.
 There are    23 symmetry adapted cartesian basis functions of B1  symmetry.
 There are    23 symmetry adapted cartesian basis functions of B2  symmetry.
 There are    23 symmetry adapted cartesian basis functions of B3  symmetry.
 There are    24 symmetry adapted basis functions of A   symmetry.
 There are    22 symmetry adapted basis functions of B1  symmetry.
 There are    22 symmetry adapted basis functions of B2  symmetry.
 There are    22 symmetry adapted basis functions of B3  symmetry.
    90 basis functions,   185 primitive gaussians,    95 cartesian basis functions
    41 alpha electrons       41 beta electrons
       nuclear repulsion energy       477.5369676738 Hartrees.
 IExCor=  402 DFT=T Ex+Corr=B3LYP ExCW=0 ScaHFX=  0.200000
 ScaDFX=  0.800000  0.720000  1.000000  0.810000 ScalE2=  1.000000  1.000000
 IRadAn=      5 IRanWt=     -1 IRanGd=            0 ICorTp=0 IEmpDi=141
 NAtoms=    5 NActive=    5 NUniq=    2 SFac= 4.00D+00 NAtFMM=   60 NAOKFM=F Big=F
 Integral buffers will be    131072 words long.
 Raffenetti 2 integral format.
 Two-electron integral symmetry is turned on.
 R6Disp:  Grimme-D3(BJ) Dispersion energy=       -0.0149137214 Hartrees.
 Nuclear repulsion after empirical dispersion term =      477.5220539524 Hartrees.
 ------------------------------------------------------------------------------
 Polarizable Continuum Model (PCM)
 =================================
 Model                : PCM.
 Atomic radii         : SMD-Coulomb.
 Polarization charges : Total charges.
 Charge compensation  : None.
 Solution method      : On-the-fly selection.
 Cavity type          : VdW (van der Waals Surface) (Alpha=1.000).
 Cavity algorithm     : GePol (No added spheres)
                        Default sphere list used, NSphG=    5.
                        Lebedev-Laikov grids with approx.  5.0 points / Ang**2.
                        Smoothing algorithm: York/Karplus (Gamma=1.0000).
                        Polarization charges: spherical gaussians, with
                                              point-specific exponents (IZeta= 3).
                        Self-potential: point-specific (ISelfS= 7).
                        Self-field    : sphere-specific E.n sum rule (ISelfD= 2).
 1st derivatives      : Analytical E(r).r(x)/FMM algorithm (CHGder, D1EAlg=3).
                        Cavity 1st derivative terms included.
 Solvent              : TetraHydroFuran, Eps=   7.425700 Eps(inf)=   1.974025
 ------------------------------------------------------------------------------
 Spheres list:
 ISph  on   Nord     Re0    Alpha      Xe            Ye            Ze
    1  Al      1    2.3000  1.000      0.000000      0.000000      0.000000
    2  Cl      2    2.3800  1.000      1.244927      1.244927      1.244927
    3  Cl      3    2.3800  1.000     -1.244927     -1.244927      1.244927
    4  Cl      4    2.3800  1.000      1.244927     -1.244927     -1.244927
    5  Cl      5    2.3800  1.000     -1.244927      1.244927     -1.244927
 ------------------------------------------------------------------------------
 GePol: Number of generator spheres                  =       5
 GePol: Total number of spheres                      =       5
 GePol: Number of exposed spheres                    =       5 (100.00%)
 GePol: Number of points                             =    1256
 GePol: Average weight of points                     =       0.15
 GePol: Minimum weight of points                     =   0.48D-04
 GePol: Maximum weight of points                     =    0.18138
 GePol: Number of points with low weight             =      12
 GePol: Fraction of low-weight points (<1% of avg)   =       0.96%
 GePol: Cavity surface area                          =    192.060 Ang**2
 GePol: Cavity volume                                =    196.905 Ang**3
 ------------------------------------------------------------------------------
 Atomic radii for non-electrostatic terms: SMD-CDS.
 ------------------------------------------------------------------------------
 PCM non-electrostatic energy =        -0.0040528505 Hartrees.
 Nuclear repulsion after PCM non-electrostatic terms =      477.5180011019 Hartrees.
 Leave Link  301 at Wed Jun 24 00:57:40 2026, MaxMem=  1879048192 cpu:               0.0 elap:               0.0
 (Enter /CH/g16/l302.exe)
 NPDir=0 NMtPBC=     1 NCelOv=     1 NCel=       1 NClECP=     1 NCelD=      1
         NCelK=      1 NCelE2=     1 NClLst=     1 CellRange=     0.0.
 One-electron integrals computed using PRISM.
 One-electron integral symmetry used in STVInt
  24 Symmetry operations used in ECPInt.
 ECPInt:  NShTT=     820 NPrTT=    4210 LenC2=     781 LenP2D=    2806.
 LDataN:  DoStor=T MaxTD1= 4 Len=   56
 NBasis=    90 RedAO= T EigKep=  2.57D-02  NBF=    24    22    22    22
 NBsUse=    90 1.00D-06 EigRej= -1.00D+00 NBFU=    24    22    22    22
 Precomputing XC quadrature grid using
 IXCGrd= 4 IRadAn=           5 IRanWt=          -1 IRanGd=           0 AccXCQ= 0.00D+00.
 Generated NRdTot=       0 NPtTot=           0 NUsed=           0 NTot=          32
 NSgBfM=    94    94    94    94    94 MxSgAt=     5 MxSgA2=     5.
 Leave Link  302 at Wed Jun 24 00:57:40 2026, MaxMem=  1879048192 cpu:               0.3 elap:               0.1
 (Enter /CH/g16/l303.exe)
 DipDrv:  MaxL=1.
 Leave Link  303 at Wed Jun 24 00:57:40 2026, MaxMem=  1879048192 cpu:               0.0 elap:               0.0
 (Enter /CH/g16/l401.exe)
 Initial guess from the checkpoint file:  "AlCl4.chk"
 B after Tr=    -0.000000   -0.000000   -0.000000
         Rot=    1.000000    0.000000    0.000000    0.000000 Ang=   0.00 deg.
 Guess basis will be translated and rotated to current coordinates.
 JPrj=2 DoOrth=T DoCkMO=T.
 Initial guess orbital symmetries:
       Occupied  (A1) (T2) (T2) (T2) (A1) (A1) (T2) (T2) (T2) (T2)
                 (T2) (T2) (A1) (T2) (T2) (T2) (T1) (T1) (T1) (E)
                 (E) (A1) (T2) (T2) (T2) (A1) (T2) (T2) (T2) (A1)
                 (T2) (T2) (T2) (E) (E) (T2) (T2) (T2) (T1) (T1)
                 (T1)
       Virtual   (A1) (T2) (T2) (T2) (A1) (T2) (T2) (T2) (E) (E)
                 (T2) (T2) (T2) (T2) (T2) (T2) (A1) (T1) (T1) (T1)
                 (E) (E) (T2) (T2) (T2) (T1) (T1) (T1) (A1) (T2)
                 (T2) (T2) (E) (E) (T1) (T1) (T1) (T2) (T2) (T2)
                 (E) (E) (T2) (T2) (T2) (A1) (T2) (T2) (T2)
 The electronic state of the initial guess is 1-A1.
 Generating alternative initial guess.
 ExpMin= 5.44D-02 ExpMax= 1.04D+04 ExpMxC= 1.57D+03 IAcc=3 IRadAn=         5 AccDes= 0.00D+00
 Harris functional with IExCor=  402 and IRadAn=       5 diagonalized for initial guess.
 HarFok:  IExCor=  402 AccDes= 0.00D+00 IRadAn=         5 IDoV= 1 UseB2=F ITyADJ=14
 ICtDFT=  3500011 ScaDFX=  1.000000  1.000000  1.000000  1.000000
 FoFCou: FMM=F IPFlag=           0 FMFlag=      100000 FMFlg1=           0
         NFxFlg=           0 DoJE=T BraDBF=F KetDBF=T FulRan=T
         wScrn=  0.000000 ICntrl=       500 IOpCl=  0 I1Cent=   200000004 NGrid=           0
         NMat0=    1 NMatS0=      1 NMatT0=    0 NMatD0=    1 NMtDS0=    0 NMtDT0=    0
 Petite list used in FoFCou.
 Harris En= -2082.78236528219    
 Leave Link  401 at Wed Jun 24 00:57:40 2026, MaxMem=  1879048192 cpu:               0.5 elap:               0.1
 (Enter /CH/g16/l502.exe)
 Keep R1 ints in memory in symmetry-blocked form, NReq=15746091.
 FoFCou: FMM=F IPFlag=           0 FMFlag=           0 FMFlg1=           0
         NFxFlg=           0 DoJE=F BraDBF=F KetDBF=F FulRan=T
         wScrn=  0.000000 ICntrl=       600 IOpCl=  0 I1Cent=           0 NGrid=           0
         NMat0=    1 NMatS0=   4095 NMatT0=    0 NMatD0=    1 NMtDS0=    0 NMtDT0=    0
 Petite list used in FoFCou.
 Closed shell SCF:
 Using DIIS extrapolation, IDIIS=  1040.
 NGot=  1879048192 LenX=  1876918143 LenY=  1876908677
 Requested convergence on RMS density matrix=1.00D-08 within 128 cycles.
 Requested convergence on MAX density matrix=1.00D-06.
 Requested convergence on             energy=1.00D-06.
 No special actions if energy rises.

 Cycle   1  Pass 1  IDiag  1:
 Inv3:  Mode=1 IEnd=     4732608.
 Iteration    1 A*A^-1 deviation from unit magnitude is 3.22D-15 for    382.
 Iteration    1 A*A^-1 deviation from orthogonality  is 2.00D-15 for   1016    103.
 Iteration    1 A^-1*A deviation from unit magnitude is 3.11D-15 for    728.
 Iteration    1 A^-1*A deviation from orthogonality  is 1.67D-15 for   1016    103.
 E= -2083.11538260678    
 DIIS: error= 3.31D-03 at cycle   1 NSaved=   1.
 NSaved= 1 IEnMin= 1 EnMin= -2083.11538260678     IErMin= 1 ErrMin= 3.31D-03
 ErrMax= 3.31D-03  0.00D+00 EMaxC= 1.00D-01 BMatC= 4.19D-04 BMatP= 4.19D-04
 IDIUse=3 WtCom= 9.67D-01 WtEn= 3.31D-02
 Coeff-Com:  0.100D+01
 Coeff-En:   0.100D+01
 Coeff:      0.100D+01
 Gap=     0.334 Goal=   None    Shift=    0.000
 GapD=    0.334 DampG=1.000 DampE=1.000 DampFc=1.0000 IDamp=-1.
 RMSDP=2.63D-04 MaxDP=3.33D-03              OVMax= 6.77D-03

 Cycle   2  Pass 1  IDiag  1:
 E= -2083.11556565361     Delta-E=       -0.000183046829 Rises=F Damp=F
 DIIS: error= 3.33D-04 at cycle   2 NSaved=   2.
 NSaved= 2 IEnMin= 2 EnMin= -2083.11556565361     IErMin= 2 ErrMin= 3.33D-04
 ErrMax= 3.33D-04  0.00D+00 EMaxC= 1.00D-01 BMatC= 1.37D-05 BMatP= 4.19D-04
 IDIUse=3 WtCom= 9.97D-01 WtEn= 3.33D-03
 Coeff-Com:  0.610D-01 0.939D+00
 Coeff-En:   0.000D+00 0.100D+01
 Coeff:      0.608D-01 0.939D+00
 Gap=     0.332 Goal=   None    Shift=    0.000
 RMSDP=7.85D-05 MaxDP=2.09D-03 DE=-1.83D-04 OVMax= 1.41D-03

 Cycle   3  Pass 1  IDiag  1:
 E= -2083.11557353744     Delta-E=       -0.000007883832 Rises=F Damp=F
 DIIS: error= 2.45D-04 at cycle   3 NSaved=   3.
 NSaved= 3 IEnMin= 3 EnMin= -2083.11557353744     IErMin= 3 ErrMin= 2.45D-04
 ErrMax= 2.45D-04  0.00D+00 EMaxC= 1.00D-01 BMatC= 6.00D-06 BMatP= 1.37D-05
 IDIUse=3 WtCom= 9.98D-01 WtEn= 2.45D-03
 Coeff-Com:  0.435D-04 0.395D+00 0.605D+00
 Coeff-En:   0.000D+00 0.271D+00 0.729D+00
 Coeff:      0.434D-04 0.394D+00 0.606D+00
 Gap=     0.332 Goal=   None    Shift=    0.000
 RMSDP=3.36D-05 MaxDP=1.09D-03 DE=-7.88D-06 OVMax= 5.74D-04

 Cycle   4  Pass 1  IDiag  1:
 E= -2083.11558002001     Delta-E=       -0.000006482564 Rises=F Damp=F
 DIIS: error= 3.24D-05 at cycle   4 NSaved=   4.
 NSaved= 4 IEnMin= 4 EnMin= -2083.11558002001     IErMin= 4 ErrMin= 3.24D-05
 ErrMax= 3.24D-05  0.00D+00 EMaxC= 1.00D-01 BMatC= 1.82D-07 BMatP= 6.00D-06
 IDIUse=1 WtCom= 1.00D+00 WtEn= 0.00D+00
 Coeff-Com: -0.129D-02 0.155D+00 0.267D+00 0.579D+00
 Coeff:     -0.129D-02 0.155D+00 0.267D+00 0.579D+00
 Gap=     0.332 Goal=   None    Shift=    0.000
 RMSDP=7.17D-06 MaxDP=2.64D-04 DE=-6.48D-06 OVMax= 1.58D-04

 Cycle   5  Pass 1  IDiag  1:
 E= -2083.11558022131     Delta-E=       -0.000000201307 Rises=F Damp=F
 DIIS: error= 6.41D-06 at cycle   5 NSaved=   5.
 NSaved= 5 IEnMin= 5 EnMin= -2083.11558022131     IErMin= 5 ErrMin= 6.41D-06
 ErrMax= 6.41D-06  0.00D+00 EMaxC= 1.00D-01 BMatC= 5.74D-09 BMatP= 1.82D-07
 IDIUse=1 WtCom= 1.00D+00 WtEn= 0.00D+00
 Coeff-Com: -0.339D-03 0.129D-02 0.106D-01 0.160D+00 0.829D+00
 Coeff:     -0.339D-03 0.129D-02 0.106D-01 0.160D+00 0.829D+00
 Gap=     0.332 Goal=   None    Shift=    0.000
 RMSDP=1.18D-06 MaxDP=2.68D-05 DE=-2.01D-07 OVMax= 1.61D-05

 Cycle   6  Pass 1  IDiag  1:
 E= -2083.11558022773     Delta-E=       -0.000000006416 Rises=F Damp=F
 DIIS: error= 3.78D-07 at cycle   6 NSaved=   6.
 NSaved= 6 IEnMin= 6 EnMin= -2083.11558022773     IErMin= 6 ErrMin= 3.78D-07
 ErrMax= 3.78D-07  0.00D+00 EMaxC= 1.00D-01 BMatC= 1.59D-11 BMatP= 5.74D-09
 IDIUse=1 WtCom= 1.00D+00 WtEn= 0.00D+00
 Coeff-Com:  0.123D-06-0.254D-02-0.317D-02 0.225D-02 0.706D-01 0.933D+00
 Coeff:      0.123D-06-0.254D-02-0.317D-02 0.225D-02 0.706D-01 0.933D+00
 Gap=     0.332 Goal=   None    Shift=    0.000
 RMSDP=5.72D-08 MaxDP=1.14D-06 DE=-6.42D-09 OVMax= 1.77D-06

 Cycle   7  Pass 1  IDiag  1:
 E= -2083.11558022777     Delta-E=       -0.000000000036 Rises=F Damp=F
 DIIS: error= 2.21D-08 at cycle   7 NSaved=   7.
 NSaved= 7 IEnMin= 7 EnMin= -2083.11558022777     IErMin= 7 ErrMin= 2.21D-08
 ErrMax= 2.21D-08  0.00D+00 EMaxC= 1.00D-01 BMatC= 6.76D-14 BMatP= 1.59D-11
 IDIUse=1 WtCom= 1.00D+00 WtEn= 0.00D+00
 Coeff-Com:  0.101D-05-0.285D-03-0.334D-03-0.287D-03 0.620D-02 0.119D+00
 Coeff-Com:  0.876D+00
 Coeff:      0.101D-05-0.285D-03-0.334D-03-0.287D-03 0.620D-02 0.119D+00
 Coeff:      0.876D+00
 Gap=     0.332 Goal=   None    Shift=    0.000
 RMSDP=6.27D-09 MaxDP=2.65D-07 DE=-3.64D-11 OVMax= 1.27D-07

 Error on total polarization charges =  0.00044
 SCF Done:  E(RB3LYP) =  -2083.11558023     A.U. after    7 cycles
            NFock=  7  Conv=0.63D-08     -V/T= 2.0024
 KE= 2.078217492733D+03 PE=-5.926435742291D+03 EE= 1.287584668229D+03
 SMD-CDS (non-electrostatic) energy       (kcal/mol) =      -2.54
 (included in total energy above)
 Leave Link  502 at Wed Jun 24 00:57:41 2026, MaxMem=  1879048192 cpu:               6.9 elap:               1.0
 (Enter /CH/g16/l701.exe)
 ... and contract with generalized density number  0.
 Compute integral first derivatives.
 R6Disp: Adding Grimme-D3(BJ) dispersion energy 1st derivatives to the gradient.
  24 Symmetry operations used in ECPInt.
 ECPInt:  NShTT=     820 NPrTT=    4210 LenC2=     781 LenP2D=    2806.
 LDataN:  DoStor=T MaxTD1= 5 Len=  102
 D1PCM: PCM CHGder 1st derivatives, ID1Alg=3 FixD1E=F DoIter=F DoCFld=F I1PDM=0.
 GePol: Maximum number of non-zero 1st derivatives   =     343
 Leave Link  701 at Wed Jun 24 00:57:41 2026, MaxMem=  1879048192 cpu:               1.8 elap:               0.3
 (Enter /CH/g16/l702.exe)
 L702 exits ... SP integral derivatives will be done elsewhere.
 Leave Link  702 at Wed Jun 24 00:57:41 2026, MaxMem=  1879048192 cpu:               0.0 elap:               0.0
 (Enter /CH/g16/l703.exe)
 Integral derivatives from FoFJK, PRISM(SPDF).
 Compute integral first derivatives, UseDBF=F ICtDFT=           0.
 Calling FoFJK, ICntrl=      2127 FMM=F ISym2X=1 I1Cent= 0 IOpClX= 0 NMat=1 NMatS=1 NMatT=0.
 FoFJK:  IHMeth= 1 ICntrl=    2127 DoSepK=F KAlg= 0 I1Cent=           0 FoldK=F
 IRaf=         0 NMat=       1 IRICut=       1 DoRegI=T DoRafI=F ISym2E= 1 IDoP0=0 IntGTp=1.
 FoFCou: FMM=F IPFlag=           0 FMFlag=      100000 FMFlg1=         800
         NFxFlg=           0 DoJE=F BraDBF=F KetDBF=F FulRan=T
         wScrn=  0.000000 ICntrl=      2127 IOpCl=  0 I1Cent=           0 NGrid=           0
         NMat0=    1 NMatS0=      1 NMatT0=    0 NMatD0=    1 NMtDS0=    0 NMtDT0=    0
 Petite list used in FoFCou.
 Leave Link  703 at Wed Jun 24 00:57:41 2026, MaxMem=  1879048192 cpu:               0.6 elap:               0.1
 (Enter /CH/g16/l716.exe)
 Dipole        =-4.88498131D-15-1.77635684D-15 1.33226763D-15
 ***** Axes restored to original set *****
 -------------------------------------------------------------------
 Center     Atomic                   Forces (Hartrees/Bohr)
 Number     Number              X              Y              Z
 -------------------------------------------------------------------
      1       13          -0.000000000    0.000000000    0.000000000
      2       17           0.001662442    0.001662442    0.001662442
      3       17          -0.001662442   -0.001662442    0.001662442
      4       17           0.001662442   -0.001662442   -0.001662442
      5       17          -0.001662442    0.001662442   -0.001662442
 -------------------------------------------------------------------
 Cartesian Forces:  Max     0.001662442 RMS     0.001486934
 Leave Link  716 at Wed Jun 24 00:57:41 2026, MaxMem=  1879048192 cpu:               0.0 elap:               0.0
 (Enter /CH/g16/l103.exe)

 GradGradGradGradGradGradGradGradGradGradGradGradGradGradGradGradGradGrad
 Berny optimization.
 Using GEDIIS/GDIIS optimizer.
 FormGI is forming the generalized inverse of G from B-inverse, IUseBI=4.
 Internal  Forces:  Max     0.002879434 RMS     0.001539122
 Search for a local minimum.
 Step number   2 out of a maximum of   24
 All quantities printed in internal units (Hartrees-Bohrs-Radians)
 RMS Force = .15391D-02 SwitMx=.10000D-02 MixMth= 1
 Mixed Optimization -- RFO/linear search
 Update second derivatives using D2CorX and points    1    2
 DE= -1.38D-03 DEPred=-1.12D-03 R= 1.23D+00
 TightC=F SS=  1.41D+00  RLast= 9.77D-02 DXNew= 5.0454D-01 2.9314D-01
 Trust test= 1.23D+00 RLast= 9.77D-02 DXMaxT set to 3.00D-01
 The second derivative matrix:
                          R1        R2        R3        R4        A1
           R1           0.21685
           R2          -0.01418   0.21685
           R3          -0.01418  -0.01418   0.21685
           R4          -0.01418  -0.01418  -0.01418   0.21685
           A1           0.00000   0.00000   0.00000   0.00000   0.25000
           A2           0.00000   0.00000   0.00000   0.00000   0.00000
           A3          -0.00000  -0.00000  -0.00000  -0.00000  -0.00000
           A4           0.00000   0.00000   0.00000   0.00000   0.00000
           A5           0.00000   0.00000   0.00000   0.00000   0.00000
           A6           0.00000   0.00000   0.00000   0.00000   0.00000
           D1           0.00000   0.00000   0.00000   0.00000   0.00000
           D2           0.00000   0.00000   0.00000   0.00000   0.00000
           D3          -0.00000  -0.00000  -0.00000  -0.00000  -0.00000
           D4          -0.00000  -0.00000  -0.00000  -0.00000  -0.00000
                          A2        A3        A4        A5        A6
           A2           0.25000
           A3          -0.00000   0.25000
           A4           0.00000  -0.00000   0.25000
           A5           0.00000  -0.00000   0.00000   0.25000
           A6           0.00000  -0.00000   0.00000   0.00000   0.25000
           D1           0.00000  -0.00000   0.00000   0.00000   0.00000
           D2           0.00000  -0.00000   0.00000   0.00000   0.00000
           D3          -0.00000   0.00000  -0.00000  -0.00000  -0.00000
           D4          -0.00000   0.00000  -0.00000  -0.00000  -0.00000
                          D1        D2        D3        D4
           D1           0.02351
           D2           0.00000   0.02351
           D3          -0.00000  -0.00000   0.02351
           D4          -0.00000  -0.00000   0.00000   0.02351
 ITU=  1  0
 Use linear search instead of GDIIS.
     Eigenvalues ---    0.09320   0.10229   0.14430   0.17432   0.23103
     Eigenvalues ---    0.23103   0.23103   0.25000   0.25000
 RFO step:  Lambda= 0.00000000D+00 EMin= 9.31995920D-02
 Quartic linear search produced a step of  0.35899.
 Iteration  1 RMS(Cart)=  0.00937490 RMS(Int)=  0.00000000
 Iteration  2 RMS(Cart)=  0.00000000 RMS(Int)=  0.00000000
 ITry= 1 IFail=0 DXMaxC= 1.01D-02 DCOld= 1.00D+10 DXMaxT= 3.00D-01 DXLimC= 3.00D+00 Rises=F
 ClnCor:  largest displacement from symmetrization is 1.30D-12 for atom     5.
 Variable       Old X    -DE/DX   Delta X   Delta X   Delta X     New X
                                 (Linear)    (Quad)   (Total)
    R1        4.07477   0.00288   0.01754  -0.00000   0.01754   4.09231
    R2        4.07477   0.00288   0.01754  -0.00000   0.01754   4.09231
    R3        4.07477   0.00288   0.01754   0.00000   0.01754   4.09231
    R4        4.07477   0.00288   0.01754   0.00000   0.01754   4.09231
    A1        1.91063  -0.00000   0.00000  -0.00000   0.00000   1.91063
    A2        1.91063  -0.00000  -0.00000  -0.00000   0.00000   1.91063
    A3        1.91063   0.00000  -0.00000   0.00000   0.00000   1.91063
    A4        1.91063   0.00000   0.00000   0.00000  -0.00000   1.91063
    A5        1.91063  -0.00000   0.00000  -0.00000   0.00000   1.91063
    A6        1.91063  -0.00000  -0.00000  -0.00000   0.00000   1.91063
    D1        2.09440   0.00000   0.00000  -0.00000   0.00000   2.09440
    D2       -2.09440   0.00000   0.00000  -0.00000   0.00000  -2.09440
    D3        2.09440  -0.00000   0.00000   0.00000   0.00000   2.09440
    D4       -2.09440  -0.00000   0.00000   0.00000   0.00000  -2.09440
         Item               Value     Threshold  Converged?
 Maximum Force            0.002879     0.000450     NO 
 RMS     Force            0.001539     0.000300     NO 
 Maximum Displacement     0.010126     0.001800     NO 
 RMS     Displacement     0.009375     0.001200     NO 
 Predicted change in Energy=-9.476264D-05
 Lowest energy point so far.  Saving SCF results.
 GradGradGradGradGradGradGradGradGradGradGradGradGradGradGradGradGradGrad

 Leave Link  103 at Wed Jun 24 00:57:42 2026, MaxMem=  1879048192 cpu:               0.0 elap:               0.0
 (Enter /CH/g16/l202.exe)
                          Input orientation:                          
 ---------------------------------------------------------------------
 Center     Atomic      Atomic             Coordinates (Angstroms)
 Number     Number       Type             X           Y           Z
 ---------------------------------------------------------------------
      1         13           0        0.000000   -0.000000    0.000000
      2         17           0        1.250285    1.250285    1.250285
      3         17           0       -1.250285   -1.250285    1.250285
      4         17           0        1.250285   -1.250285   -1.250285
      5         17           0       -1.250285    1.250285   -1.250285
 ---------------------------------------------------------------------
                    Distance matrix (angstroms):
                    1          2          3          4          5
     1  Al   0.000000
     2  Cl   2.165557   0.000000
     3  Cl   2.165557   3.536340   0.000000
     4  Cl   2.165557   3.536340   3.536340   0.000000
     5  Cl   2.165557   3.536340   3.536340   3.536340   0.000000
 Stoichiometry    AlCl4(1-)
 Framework group  TD[O(Al),4C3(Cl)]
 Deg. of freedom     1
 Full point group                 TD      NOp  24
 RotChk:  IX=0 Diff= 5.92D-16
 Largest Abelian subgroup         D2      NOp   4
 Largest concise Abelian subgroup D2      NOp   4
                         Standard orientation:                         
 ---------------------------------------------------------------------
 Center     Atomic      Atomic             Coordinates (Angstroms)
 Number     Number       Type             X           Y           Z
 ---------------------------------------------------------------------
      1         13           0        0.000000    0.000000    0.000000
      2         17           0        1.250285    1.250285    1.250285
      3         17           0       -1.250285   -1.250285    1.250285
      4         17           0        1.250285   -1.250285   -1.250285
      5         17           0       -1.250285    1.250285   -1.250285
 ---------------------------------------------------------------------
 Rotational constants (GHZ):           1.1556539           1.1556539           1.1556539
 Leave Link  202 at Wed Jun 24 00:57:42 2026, MaxMem=  1879048192 cpu:               0.0 elap:               0.0
 (Enter /CH/g16/l301.exe)
 Standard basis: def2SVP (5D, 7F)
 Ernie: Thresh=  0.10000D-02 Tol=  0.10000D-05 Strict=F.
 There are    26 symmetry adapted cartesian basis functions of A   symmetry.
 There are    23 symmetry adapted cartesian basis functions of B1  symmetry.
 There are    23 symmetry adapted cartesian basis functions of B2  symmetry.
 There are    23 symmetry adapted cartesian basis functions of B3  symmetry.
 There are    24 symmetry adapted basis functions of A   symmetry.
 There are    22 symmetry adapted basis functions of B1  symmetry.
 There are    22 symmetry adapted basis functions of B2  symmetry.
 There are    22 symmetry adapted basis functions of B3  symmetry.
    90 basis functions,   185 primitive gaussians,    95 cartesian basis functions
    41 alpha electrons       41 beta electrons
       nuclear repulsion energy       475.4903382787 Hartrees.
 IExCor=  402 DFT=T Ex+Corr=B3LYP ExCW=0 ScaHFX=  0.200000
 ScaDFX=  0.800000  0.720000  1.000000  0.810000 ScalE2=  1.000000  1.000000
 IRadAn=      5 IRanWt=     -1 IRanGd=            0 ICorTp=0 IEmpDi=141
 NAtoms=    5 NActive=    5 NUniq=    2 SFac= 4.00D+00 NAtFMM=   60 NAOKFM=F Big=F
 Integral buffers will be    131072 words long.
 Raffenetti 2 integral format.
 Two-electron integral symmetry is turned on.
 R6Disp:  Grimme-D3(BJ) Dispersion energy=       -0.0148165430 Hartrees.
 Nuclear repulsion after empirical dispersion term =      475.4755217356 Hartrees.
 ------------------------------------------------------------------------------
 Polarizable Continuum Model (PCM)
 =================================
 Model                : PCM.
 Atomic radii         : SMD-Coulomb.
 Polarization charges : Total charges.
 Charge compensation  : None.
 Solution method      : On-the-fly selection.
 Cavity type          : VdW (van der Waals Surface) (Alpha=1.000).
 Cavity algorithm     : GePol (No added spheres)
                        Default sphere list used, NSphG=    5.
                        Lebedev-Laikov grids with approx.  5.0 points / Ang**2.
                        Smoothing algorithm: York/Karplus (Gamma=1.0000).
                        Polarization charges: spherical gaussians, with
                                              point-specific exponents (IZeta= 3).
                        Self-potential: point-specific (ISelfS= 7).
                        Self-field    : sphere-specific E.n sum rule (ISelfD= 2).
 1st derivatives      : Analytical E(r).r(x)/FMM algorithm (CHGder, D1EAlg=3).
                        Cavity 1st derivative terms included.
 Solvent              : TetraHydroFuran, Eps=   7.425700 Eps(inf)=   1.974025
 ------------------------------------------------------------------------------
 Spheres list:
 ISph  on   Nord     Re0    Alpha      Xe            Ye            Ze
    1  Al      1    2.3000  1.000      0.000000      0.000000      0.000000
    2  Cl      2    2.3800  1.000      1.250285      1.250285      1.250285
    3  Cl      3    2.3800  1.000     -1.250285     -1.250285      1.250285
    4  Cl      4    2.3800  1.000      1.250285     -1.250285     -1.250285
    5  Cl      5    2.3800  1.000     -1.250285      1.250285     -1.250285
 ------------------------------------------------------------------------------
 GePol: Number of generator spheres                  =       5
 GePol: Total number of spheres                      =       5
 GePol: Number of exposed spheres                    =       5 (100.00%)
 GePol: Number of points                             =    1256
 GePol: Average weight of points                     =       0.15
 GePol: Minimum weight of points                     =   0.91D-04
 GePol: Maximum weight of points                     =    0.18138
 GePol: Number of points with low weight             =      12
 GePol: Fraction of low-weight points (<1% of avg)   =       0.96%
 GePol: Cavity surface area                          =    193.088 Ang**2
 GePol: Cavity volume                                =    197.685 Ang**3
 ------------------------------------------------------------------------------
 Atomic radii for non-electrostatic terms: SMD-CDS.
 ------------------------------------------------------------------------------
 PCM non-electrostatic energy =        -0.0040630446 Hartrees.
 Nuclear repulsion after PCM non-electrostatic terms =      475.4714586910 Hartrees.
 Leave Link  301 at Wed Jun 24 00:57:42 2026, MaxMem=  1879048192 cpu:               0.0 elap:               0.0
 (Enter /CH/g16/l302.exe)
 NPDir=0 NMtPBC=     1 NCelOv=     1 NCel=       1 NClECP=     1 NCelD=      1
         NCelK=      1 NCelE2=     1 NClLst=     1 CellRange=     0.0.
 One-electron integrals computed using PRISM.
 One-electron integral symmetry used in STVInt
  24 Symmetry operations used in ECPInt.
 ECPInt:  NShTT=     820 NPrTT=    4210 LenC2=     781 LenP2D=    2802.
 LDataN:  DoStor=T MaxTD1= 4 Len=   56
 NBasis=    90 RedAO= T EigKep=  2.61D-02  NBF=    24    22    22    22
 NBsUse=    90 1.00D-06 EigRej= -1.00D+00 NBFU=    24    22    22    22
 Precomputing XC quadrature grid using
 IXCGrd= 4 IRadAn=           5 IRanWt=          -1 IRanGd=           0 AccXCQ= 0.00D+00.
 Generated NRdTot=       0 NPtTot=           0 NUsed=           0 NTot=          32
 NSgBfM=    94    94    94    94    94 MxSgAt=     5 MxSgA2=     5.
 Leave Link  302 at Wed Jun 24 00:57:42 2026, MaxMem=  1879048192 cpu:               0.3 elap:               0.1
 (Enter /CH/g16/l303.exe)
 DipDrv:  MaxL=1.
 Leave Link  303 at Wed Jun 24 00:57:42 2026, MaxMem=  1879048192 cpu:               0.0 elap:               0.0
 (Enter /CH/g16/l401.exe)
 Initial guess from the checkpoint file:  "AlCl4.chk"
 B after Tr=    -0.000000   -0.000000   -0.000000
         Rot=    1.000000    0.000000    0.000000   -0.000000 Ang=   0.00 deg.
 Guess basis will be translated and rotated to current coordinates.
 JPrj=2 DoOrth=T DoCkMO=T.
 Initial guess orbital symmetries:
       Occupied  (A1) (T2) (T2) (T2) (A1) (A1) (T2) (T2) (T2) (A1)
                 (T2) (T2) (T2) (T2) (T2) (T2) (T1) (T1) (T1) (E)
                 (E) (A1) (T2) (T2) (T2) (A1) (T2) (T2) (T2) (A1)
                 (T2) (T2) (T2) (E) (E) (T2) (T2) (T2) (T1) (T1)
                 (T1)
       Virtual   (A1) (T2) (T2) (T2) (A1) (T2) (T2) (T2) (E) (E)
                 (T2) (T2) (T2) (T2) (T2) (T2) (A1) (T1) (T1) (T1)
                 (E) (E) (T2) (T2) (T2) (T1) (T1) (T1) (A1) (T2)
                 (T2) (T2) (E) (E) (T1) (T1) (T1) (T2) (T2) (T2)
                 (E) (E) (T2) (T2) (T2) (A1) (T2) (T2) (T2)
 The electronic state of the initial guess is 1-A1.
 Leave Link  401 at Wed Jun 24 00:57:42 2026, MaxMem=  1879048192 cpu:               0.1 elap:               0.1
 (Enter /CH/g16/l502.exe)
 Keep R1 ints in memory in symmetry-blocked form, NReq=15746091.
 FoFCou: FMM=F IPFlag=           0 FMFlag=           0 FMFlg1=           0
         NFxFlg=           0 DoJE=F BraDBF=F KetDBF=F FulRan=T
         wScrn=  0.000000 ICntrl=       600 IOpCl=  0 I1Cent=           0 NGrid=           0
         NMat0=    1 NMatS0=   4095 NMatT0=    0 NMatD0=    1 NMtDS0=    0 NMtDT0=    0
 Petite list used in FoFCou.
 Closed shell SCF:
 Using DIIS extrapolation, IDIIS=  1040.
 NGot=  1879048192 LenX=  1876918143 LenY=  1876908677
 Requested convergence on RMS density matrix=1.00D-08 within 128 cycles.
 Requested convergence on MAX density matrix=1.00D-06.
 Requested convergence on             energy=1.00D-06.
 No special actions if energy rises.

 Cycle   1  Pass 1  IDiag  1:
 Inv3:  Mode=1 IEnd=     4732608.
 Iteration    1 A*A^-1 deviation from unit magnitude is 3.55D-15 for     43.
 Iteration    1 A*A^-1 deviation from orthogonality  is 1.37D-15 for    545    343.
 Iteration    1 A^-1*A deviation from unit magnitude is 3.55D-15 for     41.
 Iteration    1 A^-1*A deviation from orthogonality  is 9.72D-16 for    304     77.
 E= -2083.11565645232    
 DIIS: error= 1.11D-03 at cycle   1 NSaved=   1.
 NSaved= 1 IEnMin= 1 EnMin= -2083.11565645232     IErMin= 1 ErrMin= 1.11D-03
 ErrMax= 1.11D-03  0.00D+00 EMaxC= 1.00D-01 BMatC= 5.06D-05 BMatP= 5.06D-05
 IDIUse=3 WtCom= 9.89D-01 WtEn= 1.11D-02
 Coeff-Com:  0.100D+01
 Coeff-En:   0.100D+01
 Coeff:      0.100D+01
 Gap=     0.330 Goal=   None    Shift=    0.000
 GapD=    0.330 DampG=1.000 DampE=1.000 DampFc=1.0000 IDamp=-1.
 RMSDP=9.31D-05 MaxDP=1.23D-03              OVMax= 2.44D-03

 Cycle   2  Pass 1  IDiag  1:
 E= -2083.11567926709     Delta-E=       -0.000022814768 Rises=F Damp=F
 DIIS: error= 1.14D-04 at cycle   2 NSaved=   2.
 NSaved= 2 IEnMin= 2 EnMin= -2083.11567926709     IErMin= 2 ErrMin= 1.14D-04
 ErrMax= 1.14D-04  0.00D+00 EMaxC= 1.00D-01 BMatC= 1.69D-06 BMatP= 5.06D-05
 IDIUse=3 WtCom= 9.99D-01 WtEn= 1.14D-03
 Coeff-Com:  0.623D-01 0.938D+00
 Coeff-En:   0.000D+00 0.100D+01
 Coeff:      0.622D-01 0.938D+00
 Gap=     0.329 Goal=   None    Shift=    0.000
 RMSDP=2.72D-05 MaxDP=6.72D-04 DE=-2.28D-05 OVMax= 4.62D-04

 Cycle   3  Pass 1  IDiag  1:
 E= -2083.11568028324     Delta-E=       -0.000001016159 Rises=F Damp=F
 DIIS: error= 8.14D-05 at cycle   3 NSaved=   3.
 NSaved= 3 IEnMin= 3 EnMin= -2083.11568028324     IErMin= 3 ErrMin= 8.14D-05
 ErrMax= 8.14D-05  0.00D+00 EMaxC= 1.00D-01 BMatC= 6.89D-07 BMatP= 1.69D-06
 IDIUse=1 WtCom= 1.00D+00 WtEn= 0.00D+00
 Coeff-Com: -0.381D-03 0.386D+00 0.614D+00
 Coeff:     -0.381D-03 0.386D+00 0.614D+00
 Gap=     0.329 Goal=   None    Shift=    0.000
 RMSDP=1.13D-05 MaxDP=3.46D-04 DE=-1.02D-06 OVMax= 1.82D-04

 Cycle   4  Pass 1  IDiag  1:
 E= -2083.11568101669     Delta-E=       -0.000000733450 Rises=F Damp=F
 DIIS: error= 1.08D-05 at cycle   4 NSaved=   4.
 NSaved= 4 IEnMin= 4 EnMin= -2083.11568101669     IErMin= 4 ErrMin= 1.08D-05
 ErrMax= 1.08D-05  0.00D+00 EMaxC= 1.00D-01 BMatC= 1.95D-08 BMatP= 6.89D-07
 IDIUse=1 WtCom= 1.00D+00 WtEn= 0.00D+00
 Coeff-Com: -0.136D-02 0.151D+00 0.266D+00 0.585D+00
 Coeff:     -0.136D-02 0.151D+00 0.266D+00 0.585D+00
 Gap=     0.329 Goal=   None    Shift=    0.000
 RMSDP=2.40D-06 MaxDP=9.06D-05 DE=-7.33D-07 OVMax= 5.46D-05

 Cycle   5  Pass 1  IDiag  1:
 E= -2083.11568103835     Delta-E=       -0.000000021656 Rises=F Damp=F
 DIIS: error= 2.33D-06 at cycle   5 NSaved=   5.
 NSaved= 5 IEnMin= 5 EnMin= -2083.11568103835     IErMin= 5 ErrMin= 2.33D-06
 ErrMax= 2.33D-06  0.00D+00 EMaxC= 1.00D-01 BMatC= 8.14D-10 BMatP= 1.95D-08
 IDIUse=1 WtCom= 1.00D+00 WtEn= 0.00D+00
 Coeff-Com: -0.346D-03 0.970D-03 0.104D-01 0.178D+00 0.811D+00
 Coeff:     -0.346D-03 0.970D-03 0.104D-01 0.178D+00 0.811D+00
 Gap=     0.329 Goal=   None    Shift=    0.000
 RMSDP=4.40D-07 MaxDP=1.08D-05 DE=-2.17D-08 OVMax= 5.99D-06

 Cycle   6  Pass 1  IDiag  1:
 E= -2083.11568103926     Delta-E=       -0.000000000907 Rises=F Damp=F
 DIIS: error= 1.33D-07 at cycle   6 NSaved=   6.
 NSaved= 6 IEnMin= 6 EnMin= -2083.11568103926     IErMin= 6 ErrMin= 1.33D-07
 ErrMax= 1.33D-07  0.00D+00 EMaxC= 1.00D-01 BMatC= 2.04D-12 BMatP= 8.14D-10
 IDIUse=1 WtCom= 1.00D+00 WtEn= 0.00D+00
 Coeff-Com: -0.349D-06-0.258D-02-0.331D-02 0.422D-02 0.732D-01 0.928D+00
 Coeff:     -0.349D-06-0.258D-02-0.331D-02 0.422D-02 0.732D-01 0.928D+00
 Gap=     0.329 Goal=   None    Shift=    0.000
 RMSDP=2.04D-08 MaxDP=3.66D-07 DE=-9.07D-10 OVMax= 6.18D-07

 Cycle   7  Pass 1  IDiag  1:
 E= -2083.11568103929     Delta-E=       -0.000000000029 Rises=F Damp=F
 DIIS: error= 8.13D-09 at cycle   7 NSaved=   7.
 NSaved= 7 IEnMin= 7 EnMin= -2083.11568103929     IErMin= 7 ErrMin= 8.13D-09
 ErrMax= 8.13D-09  0.00D+00 EMaxC= 1.00D-01 BMatC= 9.26D-15 BMatP= 2.04D-12
 IDIUse=1 WtCom= 1.00D+00 WtEn= 0.00D+00
 Coeff-Com:  0.105D-05-0.292D-03-0.353D-03-0.175D-03 0.654D-02 0.119D+00
 Coeff-Com:  0.875D+00
 Coeff:      0.105D-05-0.292D-03-0.353D-03-0.175D-03 0.654D-02 0.119D+00
 Coeff:      0.875D+00
 Gap=     0.329 Goal=   None    Shift=    0.000
 RMSDP=2.32D-09 MaxDP=1.00D-07 DE=-2.86D-11 OVMax= 4.81D-08

 Error on total polarization charges =  0.00046
 SCF Done:  E(RB3LYP) =  -2083.11568104     A.U. after    7 cycles
            NFock=  7  Conv=0.23D-08     -V/T= 2.0024
 KE= 2.078172485694D+03 PE=-5.922252222067D+03 EE= 1.285492596643D+03
 SMD-CDS (non-electrostatic) energy       (kcal/mol) =      -2.55
 (included in total energy above)
 Leave Link  502 at Wed Jun 24 00:57:43 2026, MaxMem=  1879048192 cpu:               6.7 elap:               1.0
 (Enter /CH/g16/l701.exe)
 ... and contract with generalized density number  0.
 Compute integral first derivatives.
 R6Disp: Adding Grimme-D3(BJ) dispersion energy 1st derivatives to the gradient.
  24 Symmetry operations used in ECPInt.
 ECPInt:  NShTT=     820 NPrTT=    4210 LenC2=     781 LenP2D=    2802.
 LDataN:  DoStor=T MaxTD1= 5 Len=  102
 D1PCM: PCM CHGder 1st derivatives, ID1Alg=3 FixD1E=F DoIter=F DoCFld=F I1PDM=0.
 GePol: Maximum number of non-zero 1st derivatives   =     343
 Leave Link  701 at Wed Jun 24 00:57:43 2026, MaxMem=  1879048192 cpu:               1.8 elap:               0.3
 (Enter /CH/g16/l702.exe)
 L702 exits ... SP integral derivatives will be done elsewhere.
 Leave Link  702 at Wed Jun 24 00:57:43 2026, MaxMem=  1879048192 cpu:               0.0 elap:               0.0
 (Enter /CH/g16/l703.exe)
 Integral derivatives from FoFJK, PRISM(SPDF).
 Compute integral first derivatives, UseDBF=F ICtDFT=           0.
 Calling FoFJK, ICntrl=      2127 FMM=F ISym2X=1 I1Cent= 0 IOpClX= 0 NMat=1 NMatS=1 NMatT=0.
 FoFJK:  IHMeth= 1 ICntrl=    2127 DoSepK=F KAlg= 0 I1Cent=           0 FoldK=F
 IRaf=         0 NMat=       1 IRICut=       1 DoRegI=T DoRafI=F ISym2E= 1 IDoP0=0 IntGTp=1.
 FoFCou: FMM=F IPFlag=           0 FMFlag=      100000 FMFlg1=         800
         NFxFlg=           0 DoJE=F BraDBF=F KetDBF=F FulRan=T
         wScrn=  0.000000 ICntrl=      2127 IOpCl=  0 I1Cent=           0 NGrid=           0
         NMat0=    1 NMatS0=      1 NMatT0=    0 NMatD0=    1 NMtDS0=    0 NMtDT0=    0
 Petite list used in FoFCou.
 Leave Link  703 at Wed Jun 24 00:57:43 2026, MaxMem=  1879048192 cpu:               0.6 elap:               0.1
 (Enter /CH/g16/l716.exe)
 Dipole        = 1.77635684D-15-1.33226763D-15 8.88178420D-16
 ***** Axes restored to original set *****
 -------------------------------------------------------------------
 Center     Atomic                   Forces (Hartrees/Bohr)
 Number     Number              X              Y              Z
 -------------------------------------------------------------------
      1       13          -0.000000000    0.000000000    0.000000000
      2       17           0.000007732    0.000007732    0.000007732
      3       17          -0.000007732   -0.000007732    0.000007732
      4       17           0.000007732   -0.000007732   -0.000007732
      5       17          -0.000007732    0.000007732   -0.000007732
 -------------------------------------------------------------------
 Cartesian Forces:  Max     0.000007732 RMS     0.000006916
 Leave Link  716 at Wed Jun 24 00:57:43 2026, MaxMem=  1879048192 cpu:               0.0 elap:               0.0
 (Enter /CH/g16/l103.exe)

 GradGradGradGradGradGradGradGradGradGradGradGradGradGradGradGradGradGrad
 Berny optimization.
 Using GEDIIS/GDIIS optimizer.
 FormGI is forming the generalized inverse of G from B-inverse, IUseBI=4.
 Internal  Forces:  Max     0.000013392 RMS     0.000007158
 Search for a local minimum.
 Step number   3 out of a maximum of   24
 All quantities printed in internal units (Hartrees-Bohrs-Radians)
 RMS Force = .71584D-05 SwitMx=.10000D-02 MixMth= 2
 Mixed Optimization -- En-DIIS/RFO-DIIS
 Update second derivatives using D2CorX and points    1    2    3
 DE= -1.01D-04 DEPred=-9.48D-05 R= 1.06D+00
 TightC=F SS=  1.41D+00  RLast= 3.51D-02 DXNew= 5.0454D-01 1.0523D-01
 Trust test= 1.06D+00 RLast= 3.51D-02 DXMaxT set to 3.00D-01
 The second derivative matrix:
                          R1        R2        R3        R4        A1
           R1           0.21412
           R2          -0.01690   0.21412
           R3          -0.01690  -0.01690   0.21412
           R4          -0.01690  -0.01690  -0.01690   0.21412
           A1          -0.00000  -0.00000  -0.00000  -0.00000   0.25000
           A2           0.00000   0.00000   0.00000   0.00000  -0.00000
           A3           0.00000   0.00000   0.00000   0.00000  -0.00000
           A4           0.00000   0.00000   0.00000   0.00000  -0.00000
           A5          -0.00000  -0.00000  -0.00000  -0.00000   0.00000
           A6          -0.00000  -0.00000  -0.00000  -0.00000   0.00000
           D1           0.00000   0.00000   0.00000   0.00000  -0.00000
           D2           0.00000   0.00000   0.00000   0.00000  -0.00000
           D3           0.00000   0.00000   0.00000   0.00000  -0.00000
           D4           0.00000   0.00000   0.00000   0.00000  -0.00000
                          A2        A3        A4        A5        A6
           A2           0.25000
           A3           0.00000   0.25000
           A4           0.00000   0.00000   0.25000
           A5          -0.00000  -0.00000  -0.00000   0.25000
           A6          -0.00000  -0.00000  -0.00000   0.00000   0.25000
           D1           0.00000   0.00000   0.00000  -0.00000  -0.00000
           D2           0.00000   0.00000   0.00000  -0.00000  -0.00000
           D3           0.00000   0.00000   0.00000  -0.00000  -0.00000
           D4           0.00000   0.00000   0.00000  -0.00000  -0.00000
                          D1        D2        D3        D4
           D1           0.02351
           D2           0.00000   0.02351
           D3           0.00000   0.00000   0.02351
           D4           0.00000   0.00000   0.00000   0.02351
 ITU=  1  1  0
 Use linear search instead of GDIIS.
     Eigenvalues ---    0.09320   0.10229   0.14430   0.16341   0.23103
     Eigenvalues ---    0.23103   0.23103   0.25000   0.25000
 RFO step:  Lambda= 0.00000000D+00 EMin= 9.31995920D-02
 Quartic linear search produced a step of  0.00477.
 Iteration  1 RMS(Cart)=  0.00004469 RMS(Int)=  0.00000000
 Iteration  2 RMS(Cart)=  0.00000000 RMS(Int)=  0.00000000
 ITry= 1 IFail=0 DXMaxC= 4.83D-05 DCOld= 1.00D+10 DXMaxT= 3.00D-01 DXLimC= 3.00D+00 Rises=F
 ClnCor:  largest displacement from symmetrization is 1.43D-12 for atom     4.
 Variable       Old X    -DE/DX   Delta X   Delta X   Delta X     New X
                                 (Linear)    (Quad)   (Total)
    R1        4.09231   0.00001   0.00008  -0.00000   0.00008   4.09239
    R2        4.09231   0.00001   0.00008  -0.00000   0.00008   4.09239
    R3        4.09231   0.00001   0.00008   0.00000   0.00008   4.09239
    R4        4.09231   0.00001   0.00008  -0.00000   0.00008   4.09239
    A1        1.91063   0.00000   0.00000  -0.00000   0.00000   1.91063
    A2        1.91063  -0.00000   0.00000  -0.00000   0.00000   1.91063
    A3        1.91063  -0.00000   0.00000  -0.00000   0.00000   1.91063
    A4        1.91063   0.00000  -0.00000   0.00000   0.00000   1.91063
    A5        1.91063  -0.00000   0.00000   0.00000   0.00000   1.91063
    A6        1.91063   0.00000   0.00000   0.00000  -0.00000   1.91063
    D1        2.09440  -0.00000   0.00000  -0.00000   0.00000   2.09440
    D2       -2.09440   0.00000   0.00000   0.00000   0.00000  -2.09440
    D3        2.09440  -0.00000   0.00000  -0.00000   0.00000   2.09440
    D4       -2.09440  -0.00000   0.00000  -0.00000  -0.00000  -2.09440
         Item               Value     Threshold  Converged?
 Maximum Force            0.000013     0.000450     YES
 RMS     Force            0.000007     0.000300     YES
 Maximum Displacement     0.000048     0.001800     YES
 RMS     Displacement     0.000045     0.001200     YES
 Predicted change in Energy=-2.194192D-09
 Optimization completed.
    -- Stationary point found.
                           ----------------------------
                           !   Optimized Parameters   !
                           ! (Angstroms and Degrees)  !
 --------------------------                            --------------------------
 ! Name  Definition              Value          Derivative Info.                !
 --------------------------------------------------------------------------------
 ! R1    R(1,2)                  2.1656         -DE/DX =    0.0                 !
 ! R2    R(1,3)                  2.1656         -DE/DX =    0.0                 !
 ! R3    R(1,4)                  2.1656         -DE/DX =    0.0                 !
 ! R4    R(1,5)                  2.1656         -DE/DX =    0.0                 !
 ! A1    A(2,1,3)              109.4712         -DE/DX =    0.0                 !
 ! A2    A(2,1,4)              109.4712         -DE/DX =    0.0                 !
 ! A3    A(2,1,5)              109.4712         -DE/DX =    0.0                 !
 ! A4    A(3,1,4)              109.4712         -DE/DX =    0.0                 !
 ! A5    A(3,1,5)              109.4712         -DE/DX =    0.0                 !
 ! A6    A(4,1,5)              109.4712         -DE/DX =    0.0                 !
 ! D1    D(2,1,4,3)            120.0            -DE/DX =    0.0                 !
 ! D2    D(2,1,5,3)           -120.0            -DE/DX =    0.0                 !
 ! D3    D(2,1,5,4)            120.0            -DE/DX =    0.0                 !
 ! D4    D(3,1,5,4)           -120.0            -DE/DX =    0.0                 !
 --------------------------------------------------------------------------------
 Lowest energy point so far.  Saving SCF results.
 Largest change from initial coordinates is atom    3       0.035 Angstoms.
 GradGradGradGradGradGradGradGradGradGradGradGradGradGradGradGradGradGrad

 Leave Link  103 at Wed Jun 24 00:57:43 2026, MaxMem=  1879048192 cpu:               0.0 elap:               0.0
 (Enter /CH/g16/l202.exe)
                          Input orientation:                          
 ---------------------------------------------------------------------
 Center     Atomic      Atomic             Coordinates (Angstroms)
 Number     Number       Type             X           Y           Z
 ---------------------------------------------------------------------
      1         13           0        0.000000   -0.000000    0.000000
      2         17           0        1.250285    1.250285    1.250285
      3         17           0       -1.250285   -1.250285    1.250285
      4         17           0        1.250285   -1.250285   -1.250285
      5         17           0       -1.250285    1.250285   -1.250285
 ---------------------------------------------------------------------
                    Distance matrix (angstroms):
                    1          2          3          4          5
     1  Al   0.000000
     2  Cl   2.165557   0.000000
     3  Cl   2.165557   3.536340   0.000000
     4  Cl   2.165557   3.536340   3.536340   0.000000
     5  Cl   2.165557   3.536340   3.536340   3.536340   0.000000
 Stoichiometry    AlCl4(1-)
 Framework group  TD[O(Al),4C3(Cl)]
 Deg. of freedom     1
 Full point group                 TD      NOp  24
 RotChk:  IX=0 Diff= 1.97D-16
 Largest Abelian subgroup         D2      NOp   4
 Largest concise Abelian subgroup D2      NOp   4
                         Standard orientation:                         
 ---------------------------------------------------------------------
 Center     Atomic      Atomic             Coordinates (Angstroms)
 Number     Number       Type             X           Y           Z
 ---------------------------------------------------------------------
      1         13           0        0.000000    0.000000    0.000000
      2         17           0        1.250285    1.250285    1.250285
      3         17           0       -1.250285   -1.250285    1.250285
      4         17           0        1.250285   -1.250285   -1.250285
      5         17           0       -1.250285    1.250285   -1.250285
 ---------------------------------------------------------------------
 Rotational constants (GHZ):           1.1556539           1.1556539           1.1556539
 Leave Link  202 at Wed Jun 24 00:57:43 2026, MaxMem=  1879048192 cpu:               0.0 elap:               0.0
 (Enter /CH/g16/l601.exe)
 Copying SCF densities to generalized density rwf, IOpCl= 0 IROHF=0.

 **********************************************************************

            Population analysis using the SCF Density.

 **********************************************************************

 Orbital symmetries:
       Occupied  (A1) (T2) (T2) (T2) (A1) (A1) (T2) (T2) (T2) (A1)
                 (T2) (T2) (T2) (T2) (T2) (T2) (T1) (T1) (T1) (E)
                 (E) (A1) (T2) (T2) (T2) (A1) (T2) (T2) (T2) (A1)
                 (T2) (T2) (T2) (E) (E) (T2) (T2) (T2) (T1) (T1)
                 (T1)
       Virtual   (A1) (T2) (T2) (T2) (A1) (T2) (T2) (T2) (E) (E)
                 (T2) (T2) (T2) (T2) (T2) (T2) (A1) (T1) (T1) (T1)
                 (E) (E) (T2) (T2) (T2) (T1) (T1) (T1) (A1) (T2)
                 (T2) (T2) (E) (E) (T1) (T1) (T1) (T2) (T2) (T2)
                 (E) (E) (T2) (T2) (T2) (A1) (T2) (T2) (T2)
 The electronic state is 1-A1.
 Alpha  occ. eigenvalues -- -101.43078-101.43069-101.43069-101.43069 -56.04671
 Alpha  occ. eigenvalues --   -9.38582  -9.38576  -9.38576  -9.38576  -7.15081
 Alpha  occ. eigenvalues --   -7.15081  -7.15081  -7.15081  -7.14681  -7.14681
 Alpha  occ. eigenvalues --   -7.14681  -7.14679  -7.14679  -7.14679  -7.14677
 Alpha  occ. eigenvalues --   -7.14677  -4.13971  -2.69583  -2.69583  -2.69583
 Alpha  occ. eigenvalues --   -0.76378  -0.74303  -0.74303  -0.74303  -0.39588
 Alpha  occ. eigenvalues --   -0.32731  -0.32731  -0.32731  -0.28178  -0.28178
 Alpha  occ. eigenvalues --   -0.27597  -0.27597  -0.27597  -0.25538  -0.25538
 Alpha  occ. eigenvalues --   -0.25538
 Alpha virt. eigenvalues --    0.07398   0.12480   0.12480   0.12480   0.12897
 Alpha virt. eigenvalues --    0.31873   0.31873   0.31873   0.40641   0.40641
 Alpha virt. eigenvalues --    0.51038   0.51038   0.51038   0.64774   0.64774
 Alpha virt. eigenvalues --    0.64774   0.75569   0.81320   0.81320   0.81320
 Alpha virt. eigenvalues --    0.83352   0.83352   0.83410   0.83410   0.83410
 Alpha virt. eigenvalues --    0.83586   0.83586   0.83586   0.86274   0.86733
 Alpha virt. eigenvalues --    0.86733   0.86733   0.87877   0.87877   0.98192
 Alpha virt. eigenvalues --    0.98192   0.98192   1.01043   1.01043   1.01043
 Alpha virt. eigenvalues --    1.07968   1.07968   1.15091   1.15091   1.15091
 Alpha virt. eigenvalues --    1.36215   1.38907   1.38907   1.38907
          Condensed to atoms (all electrons):
               1          2          3          4          5
     1  Al  11.063446   0.332288   0.332288   0.332288   0.332288
     2  Cl   0.332288  17.112868  -0.014435  -0.014435  -0.014435
     3  Cl   0.332288  -0.014435  17.112868  -0.014435  -0.014435
     4  Cl   0.332288  -0.014435  -0.014435  17.112868  -0.014435
     5  Cl   0.332288  -0.014435  -0.014435  -0.014435  17.112868
 Mulliken charges:
               1
     1  Al   0.607401
     2  Cl  -0.401850
     3  Cl  -0.401850
     4  Cl  -0.401850
     5  Cl  -0.401850
 Sum of Mulliken charges =  -1.00000
 Mulliken charges with hydrogens summed into heavy atoms:
               1
     1  Al   0.607401
     2  Cl  -0.401850
     3  Cl  -0.401850
     4  Cl  -0.401850
     5  Cl  -0.401850
 Electronic spatial extent (au):  <R**2>=           1302.2570
 Charge=             -1.0000 electrons
 Dipole moment (field-independent basis, Debye):
    X=              0.0000    Y=              0.0000    Z=              0.0000  Tot=              0.0000
 Quadrupole moment (field-independent basis, Debye-Ang):
   XX=            -73.2869   YY=            -73.2869   ZZ=            -73.2869
   XY=              0.0000   XZ=              0.0000   YZ=              0.0000
 Traceless Quadrupole moment (field-independent basis, Debye-Ang):
   XX=              0.0000   YY=             -0.0000   ZZ=              0.0000
   XY=              0.0000   XZ=              0.0000   YZ=              0.0000
 Octapole moment (field-independent basis, Debye-Ang**2):
  XXX=              0.0000  YYY=              0.0000  ZZZ=             -0.0000  XYY=              0.0000
  XXY=              0.0000  XXZ=              0.0000  XZZ=              0.0000  YZZ=              0.0000
  YYZ=              0.0000  XYZ=            -10.7566
 Hexadecapole moment (field-independent basis, Debye-Ang**3):
 XXXX=           -572.5356 YYYY=           -572.5356 ZZZZ=           -572.5356 XXXY=              0.0000
 XXXZ=             -0.0000 YYYX=              0.0000 YYYZ=              0.0000 ZZZX=             -0.0000
 ZZZY=              0.0000 XXYY=           -196.3059 XXZZ=           -196.3059 YYZZ=           -196.3059
 XXYZ=              0.0000 YYXZ=              0.0000 ZZXY=             -0.0000
 N-N= 4.754714586910D+02 E-N=-5.922252224238D+03  KE= 2.078172485694D+03
 Symmetry A    KE= 6.388515550684D+02
 Symmetry B1   KE= 4.797736435418D+02
 Symmetry B2   KE= 4.797736435418D+02
 Symmetry B3   KE= 4.797736435418D+02
 No NMR shielding tensors so no spin-rotation constants.
 Leave Link  601 at Wed Jun 24 00:57:43 2026, MaxMem=  1879048192 cpu:               0.3 elap:               0.1
 (Enter /CH/g16/l9999.exe)
 Unable to Open any file for archive entry.
 1\1\GINC-NODE0-CHCLUSTER\FOpt\RB3LYP\def2SVP\Al1Cl4(1-)\LS\24-Jun-2026
 \0\\#p B3LYP/def2SVP EmpiricalDispersion=GD3BJ opt SCRF=(SMD,Solvent=T
 etrahydrofuran) int=ultrafine\\AlCl4\\-1,1\Al,0.,0.,0.\Cl,1.2502849874
 ,1.2502849874,1.2502849874\Cl,-1.2502849874,-1.2502849874,1.2502849874
 \Cl,1.2502849874,-1.2502849874,-1.2502849874\Cl,-1.2502849874,1.250284
 9874,-1.2502849874\\Version=ES64L-G16RevC.02\State=1-A1\HF=-2083.11568
 1\RMSD=2.324e-09\RMSF=6.916e-06\Dipole=0.,0.,0.\Quadrupole=0.,0.,0.,0.
 ,0.,0.\PG=TD [O(Al1),4C3(Cl1)]\\@
 The archive entry for this job was punched.


 KNOWLEDGE IS EXPERIMENT'S DAUGHTER.
 -- LEONARDO DA VINCI, IN "PENSIERI" CA. 1492
 Job cpu time:       0 days  0 hours  0 minutes 36.8 seconds.
 Elapsed time:       0 days  0 hours  0 minutes  5.7 seconds.
 File lengths (MBytes):  RWF=     38 Int=      0 D2E=      0 Chk=      3 Scr=      1
 Normal termination of Gaussian 16 at Wed Jun 24 00:57:43 2026.
