 Entering Gaussian System, Link 0=/CH/g16/g16
 Initial command:
 /CH/g16/l1.exe "/tmp/g16d3_AlOH3_2884047/Gau-2884063.inp" -scrdir="/tmp/g16d3_AlOH3_2884047/"
 Default is to use a total of  96 processors:
                               96 via shared-memory
                                1 via Linda
 Entering Link 1 = /CH/g16/l1.exe PID=   2884070.
  
 Copyright (c) 1988-2021, Gaussian, Inc.  All Rights Reserved.
  
 This is part of the Gaussian(R) 16 program.  It is based on
 the Gaussian(R) 09 system (copyright 2009, Gaussian, Inc.),
 the Gaussian(R) 03 system (copyright 2003, Gaussian, Inc.),
 the Gaussian(R) 98 system (copyright 1998, Gaussian, Inc.),
 the Gaussian(R) 94 system (copyright 1995, Gaussian, Inc.),
 the Gaussian 92(TM) system (copyright 1992, Gaussian, Inc.),
 the Gaussian 90(TM) system (copyright 1990, Gaussian, Inc.),
 the Gaussian 88(TM) system (copyright 1988, Gaussian, Inc.),
 the Gaussian 86(TM) system (copyright 1986, Carnegie Mellon
 University), and the Gaussian 82(TM) system (copyright 1983,
 Carnegie Mellon University). Gaussian is a federally registered
 trademark of Gaussian, Inc.
  
 This software contains proprietary and confidential information,
 including trade secrets, belonging to Gaussian, Inc.
  
 This software is provided under written license and may be
 used, copied, transmitted, or stored only in accord with that
 written license.
  
 The following legend is applicable only to US Government
 contracts under FAR:
  
                    RESTRICTED RIGHTS LEGEND
  
 Use, reproduction and disclosure by the US Government is
 subject to restrictions as set forth in subparagraphs (a)
 and (c) of the Commercial Computer Software - Restricted
 Rights clause in FAR 52.227-19.
  
 Gaussian, Inc.
 340 Quinnipiac St., Bldg. 40, Wallingford CT 06492
  
  
 ---------------------------------------------------------------
 Warning -- This program may not be used in any manner that
 competes with the business of Gaussian, Inc. or will provide
 assistance to any competitor of Gaussian, Inc.  The licensee
 of this program is prohibited from giving any competitor of
 Gaussian, Inc. access to this program.  By using this program,
 the user acknowledges that Gaussian, Inc. is engaged in the
 business of creating and licensing software in the field of
 computational chemistry and represents and warrants to the
 licensee that it is not a competitor of Gaussian, Inc. and that
 it will not use this program in any manner prohibited above.
 ---------------------------------------------------------------
  

 Cite this work as:
 Gaussian 16, Revision C.02,
 M. J. Frisch, G. W. Trucks, H. B. Schlegel, G. E. Scuseria, 
 M. A. Robb, J. R. Cheeseman, G. Scalmani, V. Barone, 
 G. A. Petersson, H. Nakatsuji, X. Li, M. Caricato, A. V. Marenich, 
 J. Bloino, B. G. Janesko, R. Gomperts, B. Mennucci, H. P. Hratchian, 
 J. V. Ortiz, A. F. Izmaylov, J. L. Sonnenberg, D. Williams-Young, 
 F. Ding, F. Lipparini, F. Egidi, J. Goings, B. Peng, A. Petrone, 
 T. Henderson, D. Ranasinghe, V. G. Zakrzewski, J. Gao, N. Rega, 
 G. Zheng, W. Liang, M. Hada, M. Ehara, K. Toyota, R. Fukuda, 
 J. Hasegawa, M. Ishida, T. Nakajima, Y. Honda, O. Kitao, H. Nakai, 
 T. Vreven, K. Throssell, J. A. Montgomery, Jr., J. E. Peralta, 
 F. Ogliaro, M. J. Bearpark, J. J. Heyd, E. N. Brothers, K. N. Kudin, 
 V. N. Staroverov, T. A. Keith, R. Kobayashi, J. Normand, 
 K. Raghavachari, A. P. Rendell, J. C. Burant, S. S. Iyengar, 
 J. Tomasi, M. Cossi, J. M. Millam, M. Klene, C. Adamo, R. Cammi, 
 J. W. Ochterski, R. L. Martin, K. Morokuma, O. Farkas, 
 J. B. Foresman, and D. J. Fox, Gaussian, Inc., Wallingford CT, 2019.
 
 ******************************************
 Gaussian 16:  ES64L-G16RevC.02  7-Dec-2021
                24-Jun-2026 
 ******************************************
 %chk=AlOH3.chk
 %nprocshared=8
 Will use up to    8 processors via shared memory.
 %mem=14GB
 ----------------------------------------------------------------------
 #p B3LYP/def2SVP EmpiricalDispersion=GD3BJ opt SCRF=(SMD,Solvent=Tetra
 hydrofuran) int=ultrafine
 ----------------------------------------------------------------------
 1/18=20,19=15,26=6,38=1/1,3;
 2/9=110,12=2,17=6,18=5,40=1/2;
 3/5=43,7=101,11=2,25=1,30=1,70=32201,71=1,72=20,74=-5,75=-5,124=41/1,2,3;
 4//1;
 5/5=2,38=5,53=20/2;
 6/7=2,8=2,9=2,10=2,28=1/1;
 7//1,2,3,16;
 1/18=20,19=15,26=6/3(2);
 2/9=110/2;
 99//99;
 2/9=110/2;
 3/5=43,7=101,11=2,25=1,30=1,70=32205,71=1,72=20,74=-5,75=-5,124=41/1,2,3;
 4/5=5,16=3,69=1/1;
 5/5=2,38=5,53=20/2;
 7//1,2,3,16;
 1/18=20,19=15,26=6/3(-5);
 2/9=110/2;
 6/7=2,8=2,9=2,10=2,19=2,28=1/1;
 99/9=1/99;
 Leave Link    1 at Wed Jun 24 00:57:37 2026, MaxMem=  1879048192 cpu:               4.1 elap:               0.1
 (Enter /CH/g16/l101.exe)
 -----
 AlOH3
 -----
 Symbolic Z-matrix:
 Charge =  0 Multiplicity = 1
 Al                    0.        0.        0. 
 O                     1.72      0.        0. 
 O                    -0.86      1.49      0. 
 O                    -0.86     -1.49      0. 
 H                     2.05      0.        0.86 
 H                    -1.45      1.62      0.74 
 H                    -1.45     -1.62      0.74 
 
 ITRead=  0  0  0  0  0  0  0
 MicOpt= -1 -1 -1 -1 -1 -1 -1
 NAtoms=      7 NQM=        7 NQMF=       0 NMMI=      0 NMMIF=      0
                NMic=       0 NMicF=      0.
                    Isotopes and Nuclear Properties:
 (Nuclear quadrupole moments (NQMom) in fm**2, nuclear magnetic moments (NMagM)
  in nuclear magnetons)

  Atom         1           2           3           4           5           6           7
 IAtWgt=          27          16          16          16           1           1           1
 AtmWgt=  26.9815413  15.9949146  15.9949146  15.9949146   1.0078250   1.0078250   1.0078250
 NucSpn=           5           0           0           0           1           1           1
 AtZEff=  -0.0000000  -0.0000000  -0.0000000  -0.0000000  -0.0000000  -0.0000000  -0.0000000
 NQMom=   14.6600000   0.0000000   0.0000000   0.0000000   0.0000000   0.0000000   0.0000000
 NMagM=    3.6415040   0.0000000   0.0000000   0.0000000   2.7928460   2.7928460   2.7928460
 AtZNuc=  13.0000000   8.0000000   8.0000000   8.0000000   1.0000000   1.0000000   1.0000000
 Leave Link  101 at Wed Jun 24 00:57:38 2026, MaxMem=  1879048192 cpu:               0.4 elap:               0.4
 (Enter /CH/g16/l103.exe)

 GradGradGradGradGradGradGradGradGradGradGradGradGradGradGradGradGradGrad
 Berny optimization.
 Initialization pass.
                           ----------------------------
                           !    Initial Parameters    !
                           ! (Angstroms and Degrees)  !
 --------------------------                            --------------------------
 ! Name  Definition              Value          Derivative Info.                !
 --------------------------------------------------------------------------------
 ! R1    R(1,2)                  1.72           estimate D2E/DX2                !
 ! R2    R(1,3)                  1.7204         estimate D2E/DX2                !
 ! R3    R(1,4)                  1.7204         estimate D2E/DX2                !
 ! R4    R(2,5)                  0.9211         estimate D2E/DX2                !
 ! R5    R(3,6)                  0.9553         estimate D2E/DX2                !
 ! R6    R(4,7)                  0.9553         estimate D2E/DX2                !
 ! A1    A(2,1,3)              119.9927         estimate D2E/DX2                !
 ! A2    A(2,1,4)              119.9927         estimate D2E/DX2                !
 ! A3    A(3,1,4)              120.0145         estimate D2E/DX2                !
 ! A4    A(1,2,5)              110.9929         estimate D2E/DX2                !
 ! A5    A(1,3,6)              115.2517         estimate D2E/DX2                !
 ! A6    A(1,4,7)              115.2517         estimate D2E/DX2                !
 ! D1    D(3,1,2,5)             90.0            estimate D2E/DX2                !
 ! D2    D(4,1,2,5)            -90.0            estimate D2E/DX2                !
 ! D3    D(2,1,3,6)           -121.0779         estimate D2E/DX2                !
 ! D4    D(4,1,3,6)             58.9221         estimate D2E/DX2                !
 ! D5    D(2,1,4,7)            121.0779         estimate D2E/DX2                !
 ! D6    D(3,1,4,7)            -58.9221         estimate D2E/DX2                !
 --------------------------------------------------------------------------------
 Trust Radius=3.00D-01 FncErr=5.00D-06 GrdErr=5.00D-06 EigMax=2.50D+02 EigMin=1.00D-04
 Number of steps in this run=     28 maximum allowed number of steps=    100.
 GradGradGradGradGradGradGradGradGradGradGradGradGradGradGradGradGradGrad

 Leave Link  103 at Wed Jun 24 00:57:38 2026, MaxMem=  1879048192 cpu:               0.0 elap:               0.0
 (Enter /CH/g16/l202.exe)
                          Input orientation:                          
 ---------------------------------------------------------------------
 Center     Atomic      Atomic             Coordinates (Angstroms)
 Number     Number       Type             X           Y           Z
 ---------------------------------------------------------------------
      1         13           0        0.000000    0.000000    0.000000
      2          8           0        1.720000    0.000000    0.000000
      3          8           0       -0.860000    1.490000    0.000000
      4          8           0       -0.860000   -1.490000    0.000000
      5          1           0        2.050000    0.000000    0.860000
      6          1           0       -1.450000    1.620000    0.740000
      7          1           0       -1.450000   -1.620000    0.740000
 ---------------------------------------------------------------------
                    Distance matrix (angstroms):
                    1          2          3          4          5
     1  Al   0.000000
     2  O    1.720000   0.000000
     3  O    1.720378   2.979346   0.000000
     4  O    1.720378   2.979346   2.980000   0.000000
     5  H    2.223083   0.921141   3.380503   3.380503   0.000000
     6  H    2.296628   3.636056   0.955301   3.250815   3.858601
     7  H    2.296628   3.636056   3.250815   0.955301   3.858601
                    6          7
     6  H    0.000000
     7  H    3.240000   0.000000
 Stoichiometry    AlH3O3
 Framework group  CS[SG(AlHO),X(H2O2)]
 Deg. of freedom     9
 Full point group                 CS      NOp   2
 Largest Abelian subgroup         CS      NOp   2
 Largest concise Abelian subgroup CS      NOp   2
                         Standard orientation:                         
 ---------------------------------------------------------------------
 Center     Atomic      Atomic             Coordinates (Angstroms)
 Number     Number       Type             X           Y           Z
 ---------------------------------------------------------------------
      1         13           0       -0.058500    0.021250   -0.000000
      2          8           0       -0.058500    1.741250   -0.000000
      3          8           0       -0.058500   -0.838750    1.490000
      4          8           0       -0.058500   -0.838750   -1.490000
      5          1           0        0.801500    2.071250   -0.000000
      6          1           0        0.681500   -1.428750    1.620000
      7          1           0        0.681500   -1.428750   -1.620000
 ---------------------------------------------------------------------
 Rotational constants (GHZ):           6.4720268           6.2222888           3.2447033
 Leave Link  202 at Wed Jun 24 00:57:38 2026, MaxMem=  1879048192 cpu:               0.0 elap:               0.0
 (Enter /CH/g16/l301.exe)
 Standard basis: def2SVP (5D, 7F)
 Ernie: Thresh=  0.10000D-02 Tol=  0.10000D-05 Strict=F.
 There are    49 symmetry adapted cartesian basis functions of A'  symmetry.
 There are    30 symmetry adapted cartesian basis functions of A"  symmetry.
 There are    46 symmetry adapted basis functions of A'  symmetry.
 There are    29 symmetry adapted basis functions of A"  symmetry.
    75 basis functions,   133 primitive gaussians,    79 cartesian basis functions
    20 alpha electrons       20 beta electrons
       nuclear repulsion energy       160.4953034495 Hartrees.
 IExCor=  402 DFT=T Ex+Corr=B3LYP ExCW=0 ScaHFX=  0.200000
 ScaDFX=  0.800000  0.720000  1.000000  0.810000 ScalE2=  1.000000  1.000000
 IRadAn=      5 IRanWt=     -1 IRanGd=            0 ICorTp=0 IEmpDi=141
 NAtoms=    7 NActive=    7 NUniq=    5 SFac= 1.96D+00 NAtFMM=   60 NAOKFM=F Big=F
 Integral buffers will be    131072 words long.
 Raffenetti 2 integral format.
 Two-electron integral symmetry is turned on.
 R6Disp:  Grimme-D3(BJ) Dispersion energy=       -0.0059609281 Hartrees.
 Nuclear repulsion after empirical dispersion term =      160.4893425214 Hartrees.
 ------------------------------------------------------------------------------
 Polarizable Continuum Model (PCM)
 =================================
 Model                : PCM.
 Atomic radii         : SMD-Coulomb.
 Polarization charges : Total charges.
 Charge compensation  : None.
 Solution method      : On-the-fly selection.
 Cavity type          : VdW (van der Waals Surface) (Alpha=1.000).
 Cavity algorithm     : GePol (No added spheres)
                        Default sphere list used, NSphG=    7.
                        Lebedev-Laikov grids with approx.  5.0 points / Ang**2.
                        Smoothing algorithm: York/Karplus (Gamma=1.0000).
                        Polarization charges: spherical gaussians, with
                                              point-specific exponents (IZeta= 3).
                        Self-potential: point-specific (ISelfS= 7).
                        Self-field    : sphere-specific E.n sum rule (ISelfD= 2).
 1st derivatives      : Analytical E(r).r(x)/FMM algorithm (CHGder, D1EAlg=3).
                        Cavity 1st derivative terms included.
 Solvent              : TetraHydroFuran, Eps=   7.425700 Eps(inf)=   1.974025
 ------------------------------------------------------------------------------
 Spheres list:
 ISph  on   Nord     Re0    Alpha      Xe            Ye            Ze
    1  Al      1    2.3000  1.000     -0.058500      0.021250     -0.000000
    2   O      2    2.2940  1.000     -0.058500      1.741250     -0.000000
    3   O      3    2.2940  1.000     -0.058500     -0.838750      1.490000
    4   O      4    2.2940  1.000     -0.058500     -0.838750     -1.490000
    5   H      5    1.2000  1.000      0.801500      2.071250     -0.000000
    6   H      6    1.2000  1.000      0.681500     -1.428750      1.620000
    7   H      7    1.2000  1.000      0.681500     -1.428750     -1.620000
 ------------------------------------------------------------------------------
 GePol: Number of generator spheres                  =       7
 GePol: Total number of spheres                      =       7
 GePol: Number of exposed spheres                    =       4 ( 57.14%)
 GePol: Number of points                             =     987
 GePol: Average weight of points                     =       0.14
 GePol: Minimum weight of points                     =   0.53D-05
 GePol: Maximum weight of points                     =    0.16851
 GePol: Number of points with low weight             =      14
 GePol: Fraction of low-weight points (<1% of avg)   =       1.42%
 GePol: Cavity surface area                          =    138.376 Ang**2
 GePol: Cavity volume                                =    131.376 Ang**3
 ------------------------------------------------------------------------------
 Atomic radii for non-electrostatic terms: SMD-CDS.
 ------------------------------------------------------------------------------
 PCM non-electrostatic energy =        -0.0014588834 Hartrees.
 Nuclear repulsion after PCM non-electrostatic terms =      160.4878836380 Hartrees.
 Leave Link  301 at Wed Jun 24 00:57:38 2026, MaxMem=  1879048192 cpu:               0.1 elap:               0.0
 (Enter /CH/g16/l302.exe)
 NPDir=0 NMtPBC=     1 NCelOv=     1 NCel=       1 NClECP=     1 NCelD=      1
         NCelK=      1 NCelE2=     1 NClLst=     1 CellRange=     0.0.
 One-electron integrals computed using PRISM.
 One-electron integral symmetry used in STVInt
   2 Symmetry operations used in ECPInt.
 ECPInt:  NShTT=     630 NPrTT=    2486 LenC2=     628 LenP2D=    2067.
 LDataN:  DoStor=T MaxTD1= 4 Len=   56
 NBasis=    75 RedAO= T EigKep=  2.29D-02  NBF=    46    29
 NBsUse=    75 1.00D-06 EigRej= -1.00D+00 NBFU=    46    29
 Precomputing XC quadrature grid using
 IXCGrd= 4 IRadAn=           5 IRanWt=          -1 IRanGd=           0 AccXCQ= 0.00D+00.
 Generated NRdTot=       0 NPtTot=           0 NUsed=           0 NTot=          32
 NSgBfM=    79    79    79    79    79 MxSgAt=     7 MxSgA2=     7.
 Leave Link  302 at Wed Jun 24 00:57:38 2026, MaxMem=  1879048192 cpu:               0.3 elap:               0.1
 (Enter /CH/g16/l303.exe)
 DipDrv:  MaxL=1.
 Leave Link  303 at Wed Jun 24 00:57:38 2026, MaxMem=  1879048192 cpu:               0.0 elap:               0.0
 (Enter /CH/g16/l401.exe)
 ExpMin= 5.44D-02 ExpMax= 5.89D+03 ExpMxC= 8.86D+02 IAcc=3 IRadAn=         5 AccDes= 0.00D+00
 Harris functional with IExCor=  402 and IRadAn=       5 diagonalized for initial guess.
 HarFok:  IExCor=  402 AccDes= 0.00D+00 IRadAn=         5 IDoV= 1 UseB2=F ITyADJ=14
 ICtDFT=  3500011 ScaDFX=  1.000000  1.000000  1.000000  1.000000
 FoFCou: FMM=F IPFlag=           0 FMFlag=      100000 FMFlg1=           0
         NFxFlg=           0 DoJE=T BraDBF=F KetDBF=T FulRan=T
         wScrn=  0.000000 ICntrl=       500 IOpCl=  0 I1Cent=   200000004 NGrid=           0
         NMat0=    1 NMatS0=      1 NMatT0=    0 NMatD0=    1 NMtDS0=    0 NMtDT0=    0
 Petite list used in FoFCou.
 Harris En= -469.942598481371    
 JPrj=0 DoOrth=F DoCkMO=F.
 Initial guess orbital symmetries:
       Occupied  (A') (A') (A') (A") (A') (A') (A") (A') (A') (A')
                 (A") (A') (A') (A") (A') (A') (A") (A") (A') (A")
       Virtual   (A') (A') (A') (A") (A') (A") (A') (A') (A') (A")
                 (A') (A") (A') (A') (A") (A') (A') (A') (A") (A")
                 (A") (A') (A') (A") (A') (A') (A') (A") (A") (A')
                 (A') (A") (A") (A') (A') (A") (A') (A') (A") (A')
                 (A") (A') (A") (A') (A") (A') (A') (A") (A") (A')
                 (A") (A') (A') (A") (A')
 The electronic state of the initial guess is 1-A'.
 Leave Link  401 at Wed Jun 24 00:57:38 2026, MaxMem=  1879048192 cpu:               0.6 elap:               0.1
 (Enter /CH/g16/l502.exe)
 Keep R1 ints in memory in symmetry-blocked form, NReq=11285227.
 FoFCou: FMM=F IPFlag=           0 FMFlag=           0 FMFlg1=           0
         NFxFlg=           0 DoJE=F BraDBF=F KetDBF=F FulRan=T
         wScrn=  0.000000 ICntrl=       600 IOpCl=  0 I1Cent=           0 NGrid=           0
         NMat0=    1 NMatS0=   2850 NMatT0=    0 NMatD0=    1 NMtDS0=    0 NMtDT0=    0
 Petite list used in FoFCou.
 Closed shell SCF:
 Using DIIS extrapolation, IDIIS=  1040.
 NGot=  1879048192 LenX=  1876986993 LenY=  1876980311
 Requested convergence on RMS density matrix=1.00D-08 within 128 cycles.
 Requested convergence on MAX density matrix=1.00D-06.
 Requested convergence on             energy=1.00D-06.
 No special actions if energy rises.

 Cycle   1  Pass 1  IDiag  1:
 Inv3:  Mode=1 IEnd=     2922507.
 Iteration    1 A*A^-1 deviation from unit magnitude is 3.55D-15 for    112.
 Iteration    1 A*A^-1 deviation from orthogonality  is 1.43D-15 for    375    315.
 Iteration    1 A^-1*A deviation from unit magnitude is 2.89D-15 for    112.
 Iteration    1 A^-1*A deviation from orthogonality  is 1.22D-15 for    934    722.
 E= -469.527493526884    
 DIIS: error= 4.81D-02 at cycle   1 NSaved=   1.
 NSaved= 1 IEnMin= 1 EnMin= -469.527493526884     IErMin= 1 ErrMin= 4.81D-02
 ErrMax= 4.81D-02  0.00D+00 EMaxC= 1.00D-01 BMatC= 4.06D-01 BMatP= 4.06D-01
 IDIUse=3 WtCom= 5.19D-01 WtEn= 4.81D-01
 Coeff-Com:  0.100D+01
 Coeff-En:   0.100D+01
 Coeff:      0.100D+01
 Gap=     0.095 Goal=   None    Shift=    0.000
 GapD=    0.095 DampG=0.500 DampE=0.500 DampFc=0.2500 IDamp=-1.
 Damping current iteration by 2.50D-01
 RMSDP=1.49D-02 MaxDP=2.94D-01              OVMax= 3.53D-01

 Cycle   2  Pass 1  IDiag  1:
 E= -469.642690632455     Delta-E=       -0.115197105571 Rises=F Damp=T
 DIIS: error= 1.61D-02 at cycle   2 NSaved=   2.
 NSaved= 2 IEnMin= 2 EnMin= -469.642690632455     IErMin= 2 ErrMin= 1.61D-02
 ErrMax= 1.61D-02  0.00D+00 EMaxC= 1.00D-01 BMatC= 5.05D-02 BMatP= 4.06D-01
 IDIUse=3 WtCom= 8.39D-01 WtEn= 1.61D-01
 Coeff-Com: -0.527D+00 0.153D+01
 Coeff-En:   0.000D+00 0.100D+01
 Coeff:     -0.442D+00 0.144D+01
 Gap=     0.247 Goal=   None    Shift=    0.000
 RMSDP=2.35D-03 MaxDP=3.68D-02 DE=-1.15D-01 OVMax= 2.23D-01

 Cycle   3  Pass 1  IDiag  1:
 E= -469.831776248037     Delta-E=       -0.189085615582 Rises=F Damp=F
 DIIS: error= 2.75D-03 at cycle   3 NSaved=   3.
 NSaved= 3 IEnMin= 3 EnMin= -469.831776248037     IErMin= 3 ErrMin= 2.75D-03
 ErrMax= 2.75D-03  0.00D+00 EMaxC= 1.00D-01 BMatC= 1.40D-03 BMatP= 5.05D-02
 IDIUse=3 WtCom= 9.72D-01 WtEn= 2.75D-02
 Coeff-Com:  0.232D-01 0.756D-01 0.901D+00
 Coeff-En:   0.000D+00 0.000D+00 0.100D+01
 Coeff:      0.226D-01 0.735D-01 0.904D+00
 Gap=     0.261 Goal=   None    Shift=    0.000
 RMSDP=3.79D-04 MaxDP=5.71D-03 DE=-1.89D-01 OVMax= 5.43D-03

 Cycle   4  Pass 1  IDiag  1:
 E= -469.832711890013     Delta-E=       -0.000935641975 Rises=F Damp=F
 DIIS: error= 4.81D-04 at cycle   4 NSaved=   4.
 NSaved= 4 IEnMin= 4 EnMin= -469.832711890013     IErMin= 4 ErrMin= 4.81D-04
 ErrMax= 4.81D-04  0.00D+00 EMaxC= 1.00D-01 BMatC= 3.12D-05 BMatP= 1.40D-03
 IDIUse=3 WtCom= 9.95D-01 WtEn= 4.81D-03
 Coeff-Com:  0.266D-01-0.347D-01 0.273D+00 0.735D+00
 Coeff-En:   0.000D+00 0.000D+00 0.000D+00 0.100D+01
 Coeff:      0.265D-01-0.346D-01 0.272D+00 0.737D+00
 Gap=     0.262 Goal=   None    Shift=    0.000
 RMSDP=9.24D-05 MaxDP=1.97D-03 DE=-9.36D-04 OVMax= 1.50D-03

 Cycle   5  Pass 1  IDiag  1:
 E= -469.832732941238     Delta-E=       -0.000021051226 Rises=F Damp=F
 DIIS: error= 2.68D-04 at cycle   5 NSaved=   5.
 NSaved= 5 IEnMin= 5 EnMin= -469.832732941238     IErMin= 5 ErrMin= 2.68D-04
 ErrMax= 2.68D-04  0.00D+00 EMaxC= 1.00D-01 BMatC= 7.47D-06 BMatP= 3.12D-05
 IDIUse=3 WtCom= 9.97D-01 WtEn= 2.68D-03
 Coeff-Com:  0.149D-01-0.214D-01 0.128D+00 0.408D+00 0.470D+00
 Coeff-En:   0.000D+00 0.000D+00 0.000D+00 0.000D+00 0.100D+01
 Coeff:      0.149D-01-0.214D-01 0.128D+00 0.407D+00 0.471D+00
 Gap=     0.262 Goal=   None    Shift=    0.000
 RMSDP=2.74D-05 MaxDP=6.13D-04 DE=-2.11D-05 OVMax= 5.97D-04

 Cycle   6  Pass 1  IDiag  1:
 E= -469.832738048065     Delta-E=       -0.000005106827 Rises=F Damp=F
 DIIS: error= 5.97D-05 at cycle   6 NSaved=   6.
 NSaved= 6 IEnMin= 6 EnMin= -469.832738048065     IErMin= 6 ErrMin= 5.97D-05
 ErrMax= 5.97D-05  0.00D+00 EMaxC= 1.00D-01 BMatC= 6.09D-07 BMatP= 7.47D-06
 IDIUse=1 WtCom= 1.00D+00 WtEn= 0.00D+00
 Coeff-Com:  0.365D-02-0.573D-02 0.157D-01 0.645D-01 0.216D+00 0.706D+00
 Coeff:      0.365D-02-0.573D-02 0.157D-01 0.645D-01 0.216D+00 0.706D+00
 Gap=     0.262 Goal=   None    Shift=    0.000
 RMSDP=6.81D-06 MaxDP=1.01D-04 DE=-5.11D-06 OVMax= 1.70D-04

 Cycle   7  Pass 1  IDiag  1:
 E= -469.832738490796     Delta-E=       -0.000000442731 Rises=F Damp=F
 DIIS: error= 8.02D-06 at cycle   7 NSaved=   7.
 NSaved= 7 IEnMin= 7 EnMin= -469.832738490796     IErMin= 7 ErrMin= 8.02D-06
 ErrMax= 8.02D-06  0.00D+00 EMaxC= 1.00D-01 BMatC= 9.47D-09 BMatP= 6.09D-07
 IDIUse=1 WtCom= 1.00D+00 WtEn= 0.00D+00
 Coeff-Com:  0.236D-03-0.217D-03-0.149D-03-0.227D-02 0.111D-02 0.304D-01
 Coeff-Com:  0.971D+00
 Coeff:      0.236D-03-0.217D-03-0.149D-03-0.227D-02 0.111D-02 0.304D-01
 Coeff:      0.971D+00
 Gap=     0.262 Goal=   None    Shift=    0.000
 RMSDP=1.00D-06 MaxDP=2.75D-05 DE=-4.43D-07 OVMax= 2.04D-05

 Cycle   8  Pass 1  IDiag  1:
 E= -469.832738498191     Delta-E=       -0.000000007395 Rises=F Damp=F
 DIIS: error= 5.13D-07 at cycle   8 NSaved=   8.
 NSaved= 8 IEnMin= 8 EnMin= -469.832738498191     IErMin= 8 ErrMin= 5.13D-07
 ErrMax= 5.13D-07  0.00D+00 EMaxC= 1.00D-01 BMatC= 2.60D-11 BMatP= 9.47D-09
 IDIUse=1 WtCom= 1.00D+00 WtEn= 0.00D+00
 Coeff-Com: -0.325D-04 0.820D-04-0.292D-03-0.152D-02-0.454D-02-0.122D-01
 Coeff-Com:  0.172D+00 0.846D+00
 Coeff:     -0.325D-04 0.820D-04-0.292D-03-0.152D-02-0.454D-02-0.122D-01
 Coeff:      0.172D+00 0.846D+00
 Gap=     0.262 Goal=   None    Shift=    0.000
 RMSDP=6.10D-08 MaxDP=1.04D-06 DE=-7.39D-09 OVMax= 1.12D-06

 Cycle   9  Pass 1  IDiag  1:
 E= -469.832738498209     Delta-E=       -0.000000000019 Rises=F Damp=F
 DIIS: error= 1.04D-07 at cycle   9 NSaved=   9.
 NSaved= 9 IEnMin= 9 EnMin= -469.832738498209     IErMin= 9 ErrMin= 1.04D-07
 ErrMax= 1.04D-07  0.00D+00 EMaxC= 1.00D-01 BMatC= 2.19D-12 BMatP= 2.60D-11
 IDIUse=1 WtCom= 1.00D+00 WtEn= 0.00D+00
 Coeff-Com: -0.536D-05 0.728D-05-0.299D-04-0.722D-04-0.291D-03-0.113D-02
 Coeff-Com:  0.119D-01 0.103D+00 0.887D+00
 Coeff:     -0.536D-05 0.728D-05-0.299D-04-0.722D-04-0.291D-03-0.113D-02
 Coeff:      0.119D-01 0.103D+00 0.887D+00
 Gap=     0.262 Goal=   None    Shift=    0.000
 RMSDP=1.63D-08 MaxDP=4.62D-07 DE=-1.85D-11 OVMax= 4.94D-07

 Cycle  10  Pass 1  IDiag  1:
 E= -469.832738498210     Delta-E=       -0.000000000001 Rises=F Damp=F
 DIIS: error= 7.06D-09 at cycle  10 NSaved=  10.
 NSaved=10 IEnMin=10 EnMin= -469.832738498210     IErMin=10 ErrMin= 7.06D-09
 ErrMax= 7.06D-09  0.00D+00 EMaxC= 1.00D-01 BMatC= 6.95D-15 BMatP= 2.19D-12
 IDIUse=1 WtCom= 1.00D+00 WtEn= 0.00D+00
 Coeff-Com: -0.589D-06 0.334D-06-0.829D-06 0.102D-04 0.310D-04 0.530D-04
 Coeff-Com: -0.190D-02-0.664D-02 0.577D-01 0.951D+00
 Coeff:     -0.589D-06 0.334D-06-0.829D-06 0.102D-04 0.310D-04 0.530D-04
 Coeff:     -0.190D-02-0.664D-02 0.577D-01 0.951D+00
 Gap=     0.262 Goal=   None    Shift=    0.000
 RMSDP=1.30D-09 MaxDP=1.50D-08 DE=-9.66D-13 OVMax= 3.73D-08

 Error on total polarization charges =  0.00252
 SCF Done:  E(RB3LYP) =  -469.832738498     A.U. after   10 cycles
            NFock= 10  Conv=0.13D-08     -V/T= 2.0052
 KE= 4.674004790683D+02 PE=-1.437749350943D+03 EE= 3.400282497386D+02
 SMD-CDS (non-electrostatic) energy       (kcal/mol) =      -0.92
 (included in total energy above)
 Leave Link  502 at Wed Jun 24 00:57:39 2026, MaxMem=  1879048192 cpu:               8.2 elap:               1.1
 (Enter /CH/g16/l601.exe)
 Copying SCF densities to generalized density rwf, IOpCl= 0 IROHF=0.

 **********************************************************************

            Population analysis using the SCF Density.

 **********************************************************************

 Orbital symmetries:
       Occupied  (A') (A') (A") (A') (A') (A') (A") (A') (A') (A')
                 (A") (A') (A") (A') (A') (A') (A") (A') (A") (A")
       Virtual   (A') (A') (A') (A") (A') (A") (A') (A') (A') (A')
                 (A") (A") (A') (A') (A') (A") (A') (A') (A") (A")
                 (A') (A") (A') (A") (A') (A') (A') (A") (A") (A')
                 (A') (A") (A") (A') (A') (A") (A') (A') (A") (A')
                 (A") (A') (A") (A') (A") (A') (A') (A") (A") (A')
                 (A") (A') (A') (A") (A')
 The electronic state is 1-A'.
 Alpha  occ. eigenvalues --  -56.03726 -19.10511 -19.10509 -19.10242  -4.13830
 Alpha  occ. eigenvalues --   -2.69935  -2.69173  -2.69143  -0.95814  -0.94607
 Alpha  occ. eigenvalues --   -0.94038  -0.50046  -0.46694  -0.46232  -0.36325
 Alpha  occ. eigenvalues --   -0.33693  -0.32241  -0.30843  -0.30803  -0.28267
 Alpha virt. eigenvalues --   -0.02102   0.01886   0.08094   0.08941   0.15102
 Alpha virt. eigenvalues --    0.17206   0.18131   0.21117   0.33528   0.41280
 Alpha virt. eigenvalues --    0.41424   0.46278   0.47187   0.61647   0.68521
 Alpha virt. eigenvalues --    0.68611   0.71730   0.82607   0.83494   0.98492
 Alpha virt. eigenvalues --    0.98928   0.99721   1.03651   1.04169   1.05453
 Alpha virt. eigenvalues --    1.10897   1.16779   1.19971   1.26146   1.29862
 Alpha virt. eigenvalues --    1.36173   1.47073   1.50549   1.50584   1.65318
 Alpha virt. eigenvalues --    1.65937   1.79731   2.25428   2.25584   2.33406
 Alpha virt. eigenvalues --    2.63939   2.76062   2.78921   2.86291   2.93137
 Alpha virt. eigenvalues --    2.96409   2.99013   2.99153   3.03036   3.04390
 Alpha virt. eigenvalues --    3.17892   3.20498   3.70905   3.72860   3.76733
          Condensed to atoms (all electrons):
               1          2          3          4          5          6
     1  Al  11.026049   0.423380   0.409120   0.409120  -0.047058  -0.032543
     2  O    0.423380   7.708070  -0.005678  -0.005678   0.335589  -0.000202
     3  O    0.409120  -0.005678   7.756431  -0.007335  -0.001468   0.326688
     4  O    0.409120  -0.005678  -0.007335   7.756431  -0.001468  -0.000650
     5  H   -0.047058   0.335589  -0.001468  -0.001468   0.537637  -0.000455
     6  H   -0.032543  -0.000202   0.326688  -0.000650  -0.000455   0.514284
     7  H   -0.032543  -0.000202  -0.000650   0.326688  -0.000455  -0.000790
               7
     1  Al  -0.032543
     2  O   -0.000202
     3  O   -0.000650
     4  O    0.326688
     5  H   -0.000455
     6  H   -0.000790
     7  H    0.514284
 Mulliken charges:
               1
     1  Al   0.844477
     2  O   -0.455278
     3  O   -0.477107
     4  O   -0.477107
     5  H    0.177678
     6  H    0.193668
     7  H    0.193668
 Sum of Mulliken charges =  -0.00000
 Mulliken charges with hydrogens summed into heavy atoms:
               1
     1  Al   0.844477
     2  O   -0.277600
     3  O   -0.283438
     4  O   -0.283438
 Electronic spatial extent (au):  <R**2>=            371.2411
 Charge=              0.0000 electrons
 Dipole moment (field-independent basis, Debye):
    X=              3.9154    Y=             -1.4845    Z=              0.0000  Tot=              4.1874
 Quadrupole moment (field-independent basis, Debye-Ang):
   XX=            -22.3011   YY=            -27.9523   ZZ=            -34.2808
   XY=             -0.9509   XZ=              0.0000   YZ=             -0.0000
 Traceless Quadrupole moment (field-independent basis, Debye-Ang):
   XX=              5.8769   YY=              0.2258   ZZ=             -6.1027
   XY=             -0.9509   XZ=              0.0000   YZ=             -0.0000
 Octapole moment (field-independent basis, Debye-Ang**2):
  XXX=              3.2957  YYY=             -9.4520  ZZZ=              0.0000  XYY=             14.7924
  XXY=              0.2587  XXZ=              0.0000  XZZ=              8.4983  YZZ=             -1.8333
  YYZ=              0.0000  XYZ=             -0.0000
 Hexadecapole moment (field-independent basis, Debye-Ang**3):
 XXXX=            -25.2477 YYYY=           -191.0329 ZZZZ=           -211.4971 XXXY=              0.2175
 XXXZ=             -0.0000 YYYX=              7.5233 YYYZ=              0.0000 ZZZX=             -0.0000
 ZZZY=              0.0000 XXYY=            -29.7861 XXZZ=            -33.3019 YYZZ=            -57.9852
 XXYZ=             -0.0000 YYXZ=              0.0000 ZZXY=            -11.5318
 N-N= 1.604878836380D+02 E-N=-1.437749350154D+03  KE= 4.674004790683D+02
 Symmetry A'   KE= 3.667008742399D+02
 Symmetry A"   KE= 1.006996048284D+02
 No NMR shielding tensors so no spin-rotation constants.
 Leave Link  601 at Wed Jun 24 00:57:39 2026, MaxMem=  1879048192 cpu:               0.3 elap:               0.1
 (Enter /CH/g16/l701.exe)
 ... and contract with generalized density number  0.
 Compute integral first derivatives.
 R6Disp: Adding Grimme-D3(BJ) dispersion energy 1st derivatives to the gradient.
   2 Symmetry operations used in ECPInt.
 ECPInt:  NShTT=     630 NPrTT=    2486 LenC2=     628 LenP2D=    2067.
 LDataN:  DoStor=T MaxTD1= 5 Len=  102
 D1PCM: PCM CHGder 1st derivatives, ID1Alg=3 FixD1E=F DoIter=F DoCFld=F I1PDM=0.
 GePol: Maximum number of non-zero 1st derivatives   =     341
 Leave Link  701 at Wed Jun 24 00:57:39 2026, MaxMem=  1879048192 cpu:               1.6 elap:               0.2
 (Enter /CH/g16/l702.exe)
 L702 exits ... SP integral derivatives will be done elsewhere.
 Leave Link  702 at Wed Jun 24 00:57:39 2026, MaxMem=  1879048192 cpu:               0.0 elap:               0.0
 (Enter /CH/g16/l703.exe)
 Integral derivatives from FoFJK, PRISM(SPDF).
 Compute integral first derivatives, UseDBF=F ICtDFT=           0.
 Calling FoFJK, ICntrl=      2127 FMM=F ISym2X=1 I1Cent= 0 IOpClX= 0 NMat=1 NMatS=1 NMatT=0.
 FoFJK:  IHMeth= 1 ICntrl=    2127 DoSepK=F KAlg= 0 I1Cent=           0 FoldK=F
 IRaf=         0 NMat=       1 IRICut=       1 DoRegI=T DoRafI=F ISym2E= 1 IDoP0=0 IntGTp=1.
 FoFCou: FMM=F IPFlag=           0 FMFlag=      100000 FMFlg1=         800
         NFxFlg=           0 DoJE=F BraDBF=F KetDBF=F FulRan=T
         wScrn=  0.000000 ICntrl=      2127 IOpCl=  0 I1Cent=           0 NGrid=           0
         NMat0=    1 NMatS0=      1 NMatT0=    0 NMatD0=    1 NMtDS0=    0 NMtDT0=    0
 Petite list used in FoFCou.
 Leave Link  703 at Wed Jun 24 00:57:40 2026, MaxMem=  1879048192 cpu:               0.9 elap:               0.1
 (Enter /CH/g16/l716.exe)
 Dipole        = 1.54045590D+00-5.84052951D-01 0.00000000D+00
 ***** Axes restored to original set *****
 -------------------------------------------------------------------
 Center     Atomic                   Forces (Hartrees/Bohr)
 Number     Number              X              Y              Z
 -------------------------------------------------------------------
      1       13          -0.002654799    0.000000000    0.000105428
      2        8          -0.026280437    0.000000000   -0.049479644
      3        8           0.011987229   -0.004826448   -0.005885443
      4        8           0.011987229    0.004826448   -0.005885443
      5        1           0.025520492    0.000000000    0.048679646
      6        1          -0.010279856    0.003762051    0.006232728
      7        1          -0.010279856   -0.003762051    0.006232728
 -------------------------------------------------------------------
 Cartesian Forces:  Max     0.049479644 RMS     0.018110196
 Leave Link  716 at Wed Jun 24 00:57:40 2026, MaxMem=  1879048192 cpu:               0.0 elap:               0.0
 (Enter /CH/g16/l103.exe)

 GradGradGradGradGradGradGradGradGradGradGradGradGradGradGradGradGradGrad
 Berny optimization.
 FormGI is forming the generalized inverse of G from B-inverse, IUseBI=4.
 Internal  Forces:  Max     0.054590908 RMS     0.014040004
 Search for a local minimum.
 Step number   1 out of a maximum of   28
 All quantities printed in internal units (Hartrees-Bohrs-Radians)
 RMS Force = .14040D-01 SwitMx=.10000D-02 MixMth= 1
 Mixed Optimization -- RFO/linear search
 Second derivative matrix not updated -- first step.
 The second derivative matrix:
                          R1        R2        R3        R4        R5
           R1           0.33587
           R2           0.00000   0.33545
           R3           0.00000   0.00000   0.33545
           R4           0.00000   0.00000   0.00000   0.64747
           R5           0.00000   0.00000   0.00000   0.00000   0.56497
           R6           0.00000   0.00000   0.00000   0.00000   0.00000
           A1           0.00000   0.00000   0.00000   0.00000   0.00000
           A2           0.00000   0.00000   0.00000   0.00000   0.00000
           A3           0.00000   0.00000   0.00000   0.00000   0.00000
           A4           0.00000   0.00000   0.00000   0.00000   0.00000
           A5           0.00000   0.00000   0.00000   0.00000   0.00000
           A6           0.00000   0.00000   0.00000   0.00000   0.00000
           D1           0.00000   0.00000   0.00000   0.00000   0.00000
           D2           0.00000   0.00000   0.00000   0.00000   0.00000
           D3           0.00000   0.00000   0.00000   0.00000   0.00000
           D4           0.00000   0.00000   0.00000   0.00000   0.00000
           D5           0.00000   0.00000   0.00000   0.00000   0.00000
           D6           0.00000   0.00000   0.00000   0.00000   0.00000
                          R6        A1        A2        A3        A4
           R6           0.56497
           A1           0.00000   0.25000
           A2           0.00000   0.00000   0.25000
           A3           0.00000   0.00000   0.00000   0.25000
           A4           0.00000   0.00000   0.00000   0.00000   0.16000
           A5           0.00000   0.00000   0.00000   0.00000   0.00000
           A6           0.00000   0.00000   0.00000   0.00000   0.00000
           D1           0.00000   0.00000   0.00000   0.00000   0.00000
           D2           0.00000   0.00000   0.00000   0.00000   0.00000
           D3           0.00000   0.00000   0.00000   0.00000   0.00000
           D4           0.00000   0.00000   0.00000   0.00000   0.00000
           D5           0.00000   0.00000   0.00000   0.00000   0.00000
           D6           0.00000   0.00000   0.00000   0.00000   0.00000
                          A5        A6        D1        D2        D3
           A5           0.16000
           A6           0.00000   0.16000
           D1           0.00000   0.00000   0.04472
           D2           0.00000   0.00000   0.00000   0.04472
           D3           0.00000   0.00000   0.00000   0.00000   0.04467
           D4           0.00000   0.00000   0.00000   0.00000   0.00000
           D5           0.00000   0.00000   0.00000   0.00000   0.00000
           D6           0.00000   0.00000   0.00000   0.00000   0.00000
                          D4        D5        D6
           D4           0.04467
           D5           0.00000   0.04467
           D6           0.00000   0.00000   0.04467
 ITU=  0
     Eigenvalues ---    0.04467   0.04467   0.04469   0.04472   0.16000
     Eigenvalues ---    0.16000   0.16000   0.25000   0.25000   0.33545
     Eigenvalues ---    0.33545   0.33587   0.56497   0.56497   0.64747
 RFO step:  Lambda=-7.48164635D-03 EMin= 4.46702795D-02
 Linear search not attempted -- first point.
 Iteration  1 RMS(Cart)=  0.06308350 RMS(Int)=  0.00283733
 Iteration  2 RMS(Cart)=  0.00283407 RMS(Int)=  0.00053313
 Iteration  3 RMS(Cart)=  0.00001263 RMS(Int)=  0.00053304
 Iteration  4 RMS(Cart)=  0.00000000 RMS(Int)=  0.00053304
 ITry= 1 IFail=0 DXMaxC= 1.81D-01 DCOld= 1.00D+10 DXMaxT= 3.00D-01 DXLimC= 3.00D+00 Rises=F
 ClnCor:  largest displacement from symmetrization is 1.10D-12 for atom     7.
 Variable       Old X    -DE/DX   Delta X   Delta X   Delta X     New X
                                 (Linear)    (Quad)   (Total)
    R1        3.25033  -0.00076   0.00000  -0.00221  -0.00221   3.24812
    R2        3.25104  -0.00178   0.00000  -0.00518  -0.00518   3.24587
    R3        3.25104  -0.00178   0.00000  -0.00518  -0.00518   3.24587
    R4        1.74070   0.05459   0.00000   0.08335   0.08335   1.82405
    R5        1.80526   0.01169   0.00000   0.02042   0.02042   1.82568
    R6        1.80526   0.01169   0.00000   0.02042   0.02042   1.82568
    A1        2.09427  -0.00158   0.00000  -0.00615  -0.00740   2.08687
    A2        2.09427  -0.00158   0.00000  -0.00615  -0.00740   2.08687
    A3        2.09465   0.00316   0.00000   0.01229   0.01101   2.10566
    A4        1.93719   0.01112   0.00000   0.06639   0.06639   2.00358
    A5        2.01152   0.00681   0.00000   0.04065   0.04065   2.05217
    A6        2.01152   0.00681   0.00000   0.04065   0.04065   2.05217
    D1        1.57080   0.00244   0.00000   0.04675   0.04638   1.61718
    D2       -1.57080  -0.00244   0.00000  -0.04675  -0.04638  -1.61718
    D3       -2.11321  -0.00472   0.00000  -0.09054  -0.09068  -2.20388
    D4        1.02839   0.00016   0.00000   0.00297   0.00310   1.03149
    D5        2.11321   0.00472   0.00000   0.09054   0.09068   2.20388
    D6       -1.02839  -0.00016   0.00000  -0.00297  -0.00310  -1.03149
         Item               Value     Threshold  Converged?
 Maximum Force            0.054591     0.000450     NO 
 RMS     Force            0.014040     0.000300     NO 
 Maximum Displacement     0.181384     0.001800     NO 
 RMS     Displacement     0.064443     0.001200     NO 
 Predicted change in Energy=-3.876917D-03
 Lowest energy point so far.  Saving SCF results.
 GradGradGradGradGradGradGradGradGradGradGradGradGradGradGradGradGradGrad

 Leave Link  103 at Wed Jun 24 00:57:40 2026, MaxMem=  1879048192 cpu:               0.0 elap:               0.0
 (Enter /CH/g16/l202.exe)
                          Input orientation:                          
 ---------------------------------------------------------------------
 Center     Atomic      Atomic             Coordinates (Angstroms)
 Number     Number       Type             X           Y           Z
 ---------------------------------------------------------------------
      1         13           0       -0.006902    0.000000    0.049329
      2          8           0        1.710883    0.000000   -0.010549
      3          8           0       -0.856403    1.492332    0.009634
      4          8           0       -0.856403   -1.492332    0.009634
      5          1           0        2.145984    0.000000    0.851072
      6          1           0       -1.493579    1.663231    0.715440
      7          1           0       -1.493579   -1.663231    0.715440
 ---------------------------------------------------------------------
                    Distance matrix (angstroms):
                    1          2          3          4          5
     1  Al   0.000000
     2  O    1.718829   0.000000
     3  O    1.717638   2.969583   0.000000
     4  O    1.717638   2.969583   2.984663   0.000000
     5  H    2.297327   0.965248   3.456791   3.456791   0.000000
     6  H    2.328143   3.682659   0.966107   3.295714   4.003893
     7  H    2.328143   3.682659   3.295714   0.966107   4.003893
                    6          7
     6  H    0.000000
     7  H    3.326461   0.000000
 Stoichiometry    AlH3O3
 Framework group  CS[SG(AlHO),X(H2O2)]
 Deg. of freedom     9
 Full point group                 CS      NOp   2
 RotChk:  IX=0 Diff= 1.11D-02
 Largest Abelian subgroup         CS      NOp   2
 Largest concise Abelian subgroup CS      NOp   2
                         Standard orientation:                         
 ---------------------------------------------------------------------
 Center     Atomic      Atomic             Coordinates (Angstroms)
 Number     Number       Type             X           Y           Z
 ---------------------------------------------------------------------
      1         13           0       -0.025363    0.016955   -0.000000
      2          8           0       -0.071735    1.735158   -0.000000
      3          8           0       -0.071735   -0.832208    1.492332
      4          8           0       -0.071735   -0.832208   -1.492332
      5          1           0        0.793280    2.163472    0.000000
      6          1           0        0.629040   -1.474913    1.663231
      7          1           0        0.629040   -1.474913   -1.663231
 ---------------------------------------------------------------------
 Rotational constants (GHZ):           6.4412170           6.2349675           3.2347670
 Leave Link  202 at Wed Jun 24 00:57:40 2026, MaxMem=  1879048192 cpu:               0.0 elap:               0.0
 (Enter /CH/g16/l301.exe)
 Standard basis: def2SVP (5D, 7F)
 Ernie: Thresh=  0.10000D-02 Tol=  0.10000D-05 Strict=F.
 There are    49 symmetry adapted cartesian basis functions of A'  symmetry.
 There are    30 symmetry adapted cartesian basis functions of A"  symmetry.
 There are    46 symmetry adapted basis functions of A'  symmetry.
 There are    29 symmetry adapted basis functions of A"  symmetry.
    75 basis functions,   133 primitive gaussians,    79 cartesian basis functions
    20 alpha electrons       20 beta electrons
       nuclear repulsion energy       160.0514755927 Hartrees.
 IExCor=  402 DFT=T Ex+Corr=B3LYP ExCW=0 ScaHFX=  0.200000
 ScaDFX=  0.800000  0.720000  1.000000  0.810000 ScalE2=  1.000000  1.000000
 IRadAn=      5 IRanWt=     -1 IRanGd=            0 ICorTp=0 IEmpDi=141
 NAtoms=    7 NActive=    7 NUniq=    5 SFac= 1.96D+00 NAtFMM=   60 NAOKFM=F Big=F
 Integral buffers will be    131072 words long.
 Raffenetti 2 integral format.
 Two-electron integral symmetry is turned on.
 R6Disp:  Grimme-D3(BJ) Dispersion energy=       -0.0059103076 Hartrees.
 Nuclear repulsion after empirical dispersion term =      160.0455652851 Hartrees.
 ------------------------------------------------------------------------------
 Polarizable Continuum Model (PCM)
 =================================
 Model                : PCM.
 Atomic radii         : SMD-Coulomb.
 Polarization charges : Total charges.
 Charge compensation  : None.
 Solution method      : On-the-fly selection.
 Cavity type          : VdW (van der Waals Surface) (Alpha=1.000).
 Cavity algorithm     : GePol (No added spheres)
                        Default sphere list used, NSphG=    7.
                        Lebedev-Laikov grids with approx.  5.0 points / Ang**2.
                        Smoothing algorithm: York/Karplus (Gamma=1.0000).
                        Polarization charges: spherical gaussians, with
                                              point-specific exponents (IZeta= 3).
                        Self-potential: point-specific (ISelfS= 7).
                        Self-field    : sphere-specific E.n sum rule (ISelfD= 2).
 1st derivatives      : Analytical E(r).r(x)/FMM algorithm (CHGder, D1EAlg=3).
                        Cavity 1st derivative terms included.
 Solvent              : TetraHydroFuran, Eps=   7.425700 Eps(inf)=   1.974025
 ------------------------------------------------------------------------------
 Spheres list:
 ISph  on   Nord     Re0    Alpha      Xe            Ye            Ze
    1  Al      1    2.3000  1.000     -0.025363      0.016955      0.000000
    2   O      2    2.2940  1.000     -0.071735      1.735158      0.000000
    3   O      3    2.2940  1.000     -0.071735     -0.832208      1.492332
    4   O      4    2.2940  1.000     -0.071735     -0.832208     -1.492332
    5   H      5    1.2000  1.000      0.793280      2.163472      0.000000
    6   H      6    1.2000  1.000      0.629040     -1.474913      1.663231
    7   H      7    1.2000  1.000      0.629040     -1.474913     -1.663231
 ------------------------------------------------------------------------------
 GePol: Number of generator spheres                  =       7
 GePol: Total number of spheres                      =       7
 GePol: Number of exposed spheres                    =       4 ( 57.14%)
 GePol: Number of points                             =     993
 GePol: Average weight of points                     =       0.14
 GePol: Minimum weight of points                     =   0.12D-07
 GePol: Maximum weight of points                     =    0.16851
 GePol: Number of points with low weight             =      16
 GePol: Fraction of low-weight points (<1% of avg)   =       1.61%
 GePol: Cavity surface area                          =    138.271 Ang**2
 GePol: Cavity volume                                =    131.284 Ang**3
 ------------------------------------------------------------------------------
 Atomic radii for non-electrostatic terms: SMD-CDS.
 ------------------------------------------------------------------------------
 PCM non-electrostatic energy =        -0.0014090685 Hartrees.
 Nuclear repulsion after PCM non-electrostatic terms =      160.0441562167 Hartrees.
 Leave Link  301 at Wed Jun 24 00:57:40 2026, MaxMem=  1879048192 cpu:               0.0 elap:               0.0
 (Enter /CH/g16/l302.exe)
 NPDir=0 NMtPBC=     1 NCelOv=     1 NCel=       1 NClECP=     1 NCelD=      1
         NCelK=      1 NCelE2=     1 NClLst=     1 CellRange=     0.0.
 One-electron integrals computed using PRISM.
 One-electron integral symmetry used in STVInt
   2 Symmetry operations used in ECPInt.
 ECPInt:  NShTT=     630 NPrTT=    2486 LenC2=     628 LenP2D=    2065.
 LDataN:  DoStor=T MaxTD1= 4 Len=   56
 NBasis=    75 RedAO= T EigKep=  2.39D-02  NBF=    46    29
 NBsUse=    75 1.00D-06 EigRej= -1.00D+00 NBFU=    46    29
 Precomputing XC quadrature grid using
 IXCGrd= 4 IRadAn=           5 IRanWt=          -1 IRanGd=           0 AccXCQ= 0.00D+00.
 Generated NRdTot=       0 NPtTot=           0 NUsed=           0 NTot=          32
 NSgBfM=    79    79    79    79    79 MxSgAt=     7 MxSgA2=     7.
 Leave Link  302 at Wed Jun 24 00:57:40 2026, MaxMem=  1879048192 cpu:               0.3 elap:               0.1
 (Enter /CH/g16/l303.exe)
 DipDrv:  MaxL=1.
 Leave Link  303 at Wed Jun 24 00:57:40 2026, MaxMem=  1879048192 cpu:               0.0 elap:               0.0
 (Enter /CH/g16/l401.exe)
 Initial guess from the checkpoint file:  "AlOH3.chk"
 B after Tr=     0.000000   -0.000000    0.000000
         Rot=    0.999999    0.000000    0.000000    0.001361 Ang=   0.16 deg.
 Guess basis will be translated and rotated to current coordinates.
 JPrj=2 DoOrth=T DoCkMO=T.
 Initial guess orbital symmetries:
       Occupied  (A') (A') (A") (A') (A') (A') (A") (A') (A') (A')
                 (A") (A') (A") (A') (A') (A') (A") (A') (A") (A")
       Virtual   (A') (A') (A') (A") (A') (A") (A') (A') (A') (A')
                 (A") (A") (A') (A') (A') (A") (A') (A') (A") (A")
                 (A') (A") (A') (A") (A') (A') (A') (A") (A") (A')
                 (A') (A") (A") (A') (A') (A") (A') (A') (A") (A')
                 (A") (A') (A") (A') (A") (A') (A') (A") (A") (A')
                 (A") (A') (A') (A") (A')
 The electronic state of the initial guess is 1-A'.
 Generating alternative initial guess.
 ExpMin= 5.44D-02 ExpMax= 5.89D+03 ExpMxC= 8.86D+02 IAcc=3 IRadAn=         5 AccDes= 0.00D+00
 Harris functional with IExCor=  402 and IRadAn=       5 diagonalized for initial guess.
 HarFok:  IExCor=  402 AccDes= 0.00D+00 IRadAn=         5 IDoV= 1 UseB2=F ITyADJ=14
 ICtDFT=  3500011 ScaDFX=  1.000000  1.000000  1.000000  1.000000
 FoFCou: FMM=F IPFlag=           0 FMFlag=      100000 FMFlg1=           0
         NFxFlg=           0 DoJE=T BraDBF=F KetDBF=T FulRan=T
         wScrn=  0.000000 ICntrl=       500 IOpCl=  0 I1Cent=   200000004 NGrid=           0
         NMat0=    1 NMatS0=      1 NMatT0=    0 NMatD0=    1 NMtDS0=    0 NMtDT0=    0
 Petite list used in FoFCou.
 Harris En= -469.943773446503    
 Leave Link  401 at Wed Jun 24 00:57:40 2026, MaxMem=  1879048192 cpu:               0.6 elap:               0.1
 (Enter /CH/g16/l502.exe)
 Keep R1 ints in memory in symmetry-blocked form, NReq=11285227.
 FoFCou: FMM=F IPFlag=           0 FMFlag=           0 FMFlg1=           0
         NFxFlg=           0 DoJE=F BraDBF=F KetDBF=F FulRan=T
         wScrn=  0.000000 ICntrl=       600 IOpCl=  0 I1Cent=           0 NGrid=           0
         NMat0=    1 NMatS0=   2850 NMatT0=    0 NMatD0=    1 NMtDS0=    0 NMtDT0=    0
 Petite list used in FoFCou.
 Closed shell SCF:
 Using DIIS extrapolation, IDIIS=  1040.
 NGot=  1879048192 LenX=  1876986993 LenY=  1876980311
 Requested convergence on RMS density matrix=1.00D-08 within 128 cycles.
 Requested convergence on MAX density matrix=1.00D-06.
 Requested convergence on             energy=1.00D-06.
 No special actions if energy rises.

 Cycle   1  Pass 1  IDiag  1:
 Inv3:  Mode=1 IEnd=     2958147.
 Iteration    1 A*A^-1 deviation from unit magnitude is 2.66D-15 for    118.
 Iteration    1 A*A^-1 deviation from orthogonality  is 1.33D-15 for    845    626.
 Iteration    1 A^-1*A deviation from unit magnitude is 2.89D-15 for    231.
 Iteration    1 A^-1*A deviation from orthogonality  is 1.07D-15 for    561    379.
 E= -469.833309393990    
 DIIS: error= 4.88D-03 at cycle   1 NSaved=   1.
 NSaved= 1 IEnMin= 1 EnMin= -469.833309393990     IErMin= 1 ErrMin= 4.88D-03
 ErrMax= 4.88D-03  0.00D+00 EMaxC= 1.00D-01 BMatC= 3.24D-03 BMatP= 3.24D-03
 IDIUse=3 WtCom= 9.51D-01 WtEn= 4.88D-02
 Coeff-Com:  0.100D+01
 Coeff-En:   0.100D+01
 Coeff:      0.100D+01
 Gap=     0.263 Goal=   None    Shift=    0.000
 GapD=    0.263 DampG=1.000 DampE=1.000 DampFc=1.0000 IDamp=-1.
 RMSDP=1.17D-03 MaxDP=1.96D-02              OVMax= 1.71D-02

 Cycle   2  Pass 1  IDiag  1:
 E= -469.837061336627     Delta-E=       -0.003751942637 Rises=F Damp=F
 DIIS: error= 1.20D-03 at cycle   2 NSaved=   2.
 NSaved= 2 IEnMin= 2 EnMin= -469.837061336627     IErMin= 2 ErrMin= 1.20D-03
 ErrMax= 1.20D-03  0.00D+00 EMaxC= 1.00D-01 BMatC= 1.57D-04 BMatP= 3.24D-03
 IDIUse=3 WtCom= 9.88D-01 WtEn= 1.20D-02
 Coeff-Com:  0.384D-01 0.962D+00
 Coeff-En:   0.000D+00 0.100D+01
 Coeff:      0.380D-01 0.962D+00
 Gap=     0.262 Goal=   None    Shift=    0.000
 RMSDP=2.68D-04 MaxDP=6.25D-03 DE=-3.75D-03 OVMax= 4.91D-03

 Cycle   3  Pass 1  IDiag  1:
 E= -469.837019040486     Delta-E=        0.000042296141 Rises=F Damp=F
 DIIS: error= 1.41D-03 at cycle   3 NSaved=   3.
 NSaved= 3 IEnMin= 2 EnMin= -469.837061336627     IErMin= 2 ErrMin= 1.20D-03
 ErrMax= 1.41D-03  0.00D+00 EMaxC= 1.00D-01 BMatC= 2.31D-04 BMatP= 1.57D-04
 IDIUse=3 WtCom= 2.11D-01 WtEn= 7.89D-01
 Coeff-Com: -0.165D-01 0.559D+00 0.457D+00
 Coeff-En:   0.000D+00 0.569D+00 0.431D+00
 Coeff:     -0.347D-02 0.567D+00 0.437D+00
 Gap=     0.261 Goal=   None    Shift=    0.000
 RMSDP=1.48D-04 MaxDP=3.53D-03 DE= 4.23D-05 OVMax= 3.00D-03

 Cycle   4  Pass 1  IDiag  1:
 E= -469.837190350966     Delta-E=       -0.000171310480 Rises=F Damp=F
 DIIS: error= 2.07D-04 at cycle   4 NSaved=   4.
 NSaved= 4 IEnMin= 4 EnMin= -469.837190350966     IErMin= 4 ErrMin= 2.07D-04
 ErrMax= 2.07D-04  0.00D+00 EMaxC= 1.00D-01 BMatC= 5.41D-06 BMatP= 1.57D-04
 IDIUse=3 WtCom= 9.98D-01 WtEn= 2.07D-03
 Coeff-Com: -0.951D-02 0.156D+00 0.184D+00 0.670D+00
 Coeff-En:   0.000D+00 0.000D+00 0.000D+00 0.100D+01
 Coeff:     -0.949D-02 0.156D+00 0.184D+00 0.670D+00
 Gap=     0.260 Goal=   None    Shift=    0.000
 RMSDP=2.76D-05 MaxDP=4.65D-04 DE=-1.71D-04 OVMax= 5.62D-04

 Cycle   5  Pass 1  IDiag  1:
 E= -469.837194366746     Delta-E=       -0.000004015780 Rises=F Damp=F
 DIIS: error= 3.46D-05 at cycle   5 NSaved=   5.
 NSaved= 5 IEnMin= 5 EnMin= -469.837194366746     IErMin= 5 ErrMin= 3.46D-05
 ErrMax= 3.46D-05  0.00D+00 EMaxC= 1.00D-01 BMatC= 2.12D-07 BMatP= 5.41D-06
 IDIUse=1 WtCom= 1.00D+00 WtEn= 0.00D+00
 Coeff-Com: -0.308D-02 0.400D-01 0.553D-01 0.257D+00 0.651D+00
 Coeff:     -0.308D-02 0.400D-01 0.553D-01 0.257D+00 0.651D+00
 Gap=     0.261 Goal=   None    Shift=    0.000
 RMSDP=6.85D-06 MaxDP=1.47D-04 DE=-4.02D-06 OVMax= 1.63D-04

 Cycle   6  Pass 1  IDiag  1:
 E= -469.837194472873     Delta-E=       -0.000000106127 Rises=F Damp=F
 DIIS: error= 2.40D-05 at cycle   6 NSaved=   6.
 NSaved= 6 IEnMin= 6 EnMin= -469.837194472873     IErMin= 6 ErrMin= 2.40D-05
 ErrMax= 2.40D-05  0.00D+00 EMaxC= 1.00D-01 BMatC= 8.43D-08 BMatP= 2.12D-07
 IDIUse=1 WtCom= 1.00D+00 WtEn= 0.00D+00
 Coeff-Com: -0.295D-03-0.260D-02 0.314D-02 0.496D-01 0.409D+00 0.541D+00
 Coeff:     -0.295D-03-0.260D-02 0.314D-02 0.496D-01 0.409D+00 0.541D+00
 Gap=     0.261 Goal=   None    Shift=    0.000
 RMSDP=2.56D-06 MaxDP=4.43D-05 DE=-1.06D-07 OVMax= 5.88D-05

 Cycle   7  Pass 1  IDiag  1:
 E= -469.837194534913     Delta-E=       -0.000000062040 Rises=F Damp=F
 DIIS: error= 1.24D-06 at cycle   7 NSaved=   7.
 NSaved= 7 IEnMin= 7 EnMin= -469.837194534913     IErMin= 7 ErrMin= 1.24D-06
 ErrMax= 1.24D-06  0.00D+00 EMaxC= 1.00D-01 BMatC= 2.93D-10 BMatP= 8.43D-08
 IDIUse=1 WtCom= 1.00D+00 WtEn= 0.00D+00
 Coeff-Com:  0.367D-04-0.205D-02-0.976D-03 0.429D-02 0.779D-01 0.124D+00
 Coeff-Com:  0.796D+00
 Coeff:      0.367D-04-0.205D-02-0.976D-03 0.429D-02 0.779D-01 0.124D+00
 Coeff:      0.796D+00
 Gap=     0.261 Goal=   None    Shift=    0.000
 RMSDP=2.81D-07 MaxDP=5.29D-06 DE=-6.20D-08 OVMax= 4.23D-06

 Cycle   8  Pass 1  IDiag  1:
 E= -469.837194535161     Delta-E=       -0.000000000248 Rises=F Damp=F
 DIIS: error= 2.05D-07 at cycle   8 NSaved=   8.
 NSaved= 8 IEnMin= 8 EnMin= -469.837194535161     IErMin= 8 ErrMin= 2.05D-07
 ErrMax= 2.05D-07  0.00D+00 EMaxC= 1.00D-01 BMatC= 4.53D-12 BMatP= 2.93D-10
 IDIUse=1 WtCom= 1.00D+00 WtEn= 0.00D+00
 Coeff-Com:  0.130D-04-0.258D-03-0.219D-03-0.656D-03-0.868D-03 0.121D-02
 Coeff-Com:  0.977D-01 0.903D+00
 Coeff:      0.130D-04-0.258D-03-0.219D-03-0.656D-03-0.868D-03 0.121D-02
 Coeff:      0.977D-01 0.903D+00
 Gap=     0.261 Goal=   None    Shift=    0.000
 RMSDP=3.88D-08 MaxDP=5.56D-07 DE=-2.48D-10 OVMax= 7.55D-07

 Cycle   9  Pass 1  IDiag  1:
 E= -469.837194535166     Delta-E=       -0.000000000005 Rises=F Damp=F
 DIIS: error= 1.51D-08 at cycle   9 NSaved=   9.
 NSaved= 9 IEnMin= 9 EnMin= -469.837194535166     IErMin= 9 ErrMin= 1.51D-08
 ErrMax= 1.51D-08  0.00D+00 EMaxC= 1.00D-01 BMatC= 4.82D-14 BMatP= 4.53D-12
 IDIUse=1 WtCom= 1.00D+00 WtEn= 0.00D+00
 Coeff-Com:  0.782D-06 0.131D-04-0.267D-05-0.115D-03-0.139D-02-0.205D-02
 Coeff-Com: -0.422D-02 0.806D-01 0.927D+00
 Coeff:      0.782D-06 0.131D-04-0.267D-05-0.115D-03-0.139D-02-0.205D-02
 Coeff:     -0.422D-02 0.806D-01 0.927D+00
 Gap=     0.261 Goal=   None    Shift=    0.000
 RMSDP=5.29D-09 MaxDP=6.72D-08 DE=-4.77D-12 OVMax= 1.12D-07

 Error on total polarization charges =  0.00261
 SCF Done:  E(RB3LYP) =  -469.837194535     A.U. after    9 cycles
            NFock=  9  Conv=0.53D-08     -V/T= 2.0055
 KE= 4.672720019269D+02 PE=-1.436902278933D+03 EE= 3.397489262542D+02
 SMD-CDS (non-electrostatic) energy       (kcal/mol) =      -0.88
 (included in total energy above)
 Leave Link  502 at Wed Jun 24 00:57:41 2026, MaxMem=  1879048192 cpu:               7.8 elap:               1.1
 (Enter /CH/g16/l701.exe)
 ... and contract with generalized density number  0.
 Compute integral first derivatives.
 R6Disp: Adding Grimme-D3(BJ) dispersion energy 1st derivatives to the gradient.
   2 Symmetry operations used in ECPInt.
 ECPInt:  NShTT=     630 NPrTT=    2486 LenC2=     628 LenP2D=    2065.
 LDataN:  DoStor=T MaxTD1= 5 Len=  102
 D1PCM: PCM CHGder 1st derivatives, ID1Alg=3 FixD1E=F DoIter=F DoCFld=F I1PDM=0.
 GePol: Maximum number of non-zero 1st derivatives   =     343
 Leave Link  701 at Wed Jun 24 00:57:41 2026, MaxMem=  1879048192 cpu:               1.6 elap:               0.2
 (Enter /CH/g16/l702.exe)
 L702 exits ... SP integral derivatives will be done elsewhere.
 Leave Link  702 at Wed Jun 24 00:57:41 2026, MaxMem=  1879048192 cpu:               0.0 elap:               0.0
 (Enter /CH/g16/l703.exe)
 Integral derivatives from FoFJK, PRISM(SPDF).
 Compute integral first derivatives, UseDBF=F ICtDFT=           0.
 Calling FoFJK, ICntrl=      2127 FMM=F ISym2X=1 I1Cent= 0 IOpClX= 0 NMat=1 NMatS=1 NMatT=0.
 FoFJK:  IHMeth= 1 ICntrl=    2127 DoSepK=F KAlg= 0 I1Cent=           0 FoldK=F
 IRaf=         0 NMat=       1 IRICut=       1 DoRegI=T DoRafI=F ISym2E= 1 IDoP0=0 IntGTp=1.
 FoFCou: FMM=F IPFlag=           0 FMFlag=      100000 FMFlg1=         800
         NFxFlg=           0 DoJE=F BraDBF=F KetDBF=F FulRan=T
         wScrn=  0.000000 ICntrl=      2127 IOpCl=  0 I1Cent=           0 NGrid=           0
         NMat0=    1 NMatS0=      1 NMatT0=    0 NMatD0=    1 NMtDS0=    0 NMtDT0=    0
 Petite list used in FoFCou.
 Leave Link  703 at Wed Jun 24 00:57:42 2026, MaxMem=  1879048192 cpu:               0.9 elap:               0.1
 (Enter /CH/g16/l716.exe)
 Dipole        = 1.61994902D+00-6.08662964D-01 0.00000000D+00
 ***** Axes restored to original set *****
 -------------------------------------------------------------------
 Center     Atomic                   Forces (Hartrees/Bohr)
 Number     Number              X              Y              Z
 -------------------------------------------------------------------
      1       13          -0.000900075    0.000000000   -0.001019765
      2        8          -0.005946348   -0.000000000   -0.000676506
      3        8           0.003988109   -0.001985182    0.003965240
      4        8           0.003988109    0.001985182    0.003965240
      5        1           0.003299248    0.000000000   -0.000484619
      6        1          -0.002214522    0.001049094   -0.002874795
      7        1          -0.002214522   -0.001049094   -0.002874795
 -------------------------------------------------------------------
 Cartesian Forces:  Max     0.005946348 RMS     0.002658886
 Leave Link  716 at Wed Jun 24 00:57:42 2026, MaxMem=  1879048192 cpu:               0.0 elap:               0.0
 (Enter /CH/g16/l103.exe)

 GradGradGradGradGradGradGradGradGradGradGradGradGradGradGradGradGradGrad
 Berny optimization.
 Using GEDIIS/GDIIS optimizer.
 FormGI is forming the generalized inverse of G from B-inverse, IUseBI=4.
 Internal  Forces:  Max     0.005746037 RMS     0.002732456
 Search for a local minimum.
 Step number   2 out of a maximum of   28
 All quantities printed in internal units (Hartrees-Bohrs-Radians)
 RMS Force = .27325D-02 SwitMx=.10000D-02 MixMth= 1
 Mixed Optimization -- RFO/linear search
 Update second derivatives using D2CorX and points    1    2
 DE= -4.46D-03 DEPred=-3.88D-03 R= 1.15D+00
 TightC=F SS=  1.41D+00  RLast= 1.91D-01 DXNew= 5.0454D-01 5.7352D-01
 Trust test= 1.15D+00 RLast= 1.91D-01 DXMaxT set to 5.05D-01
 The second derivative matrix:
                          R1        R2        R3        R4        R5
           R1           0.33638
           R2          -0.00020   0.33504
           R3          -0.00020  -0.00042   0.33504
           R4           0.02257   0.01245   0.01245   0.73598
           R5           0.00505   0.00265   0.00265   0.02545   0.57189
           R6           0.00505   0.00265   0.00265   0.02545   0.00692
           A1          -0.00021  -0.00045  -0.00045   0.01342   0.00286
           A2          -0.00021  -0.00045  -0.00045   0.01342   0.00286
           A3           0.00038   0.00066   0.00066  -0.01781  -0.00377
           A4           0.00280   0.00250   0.00250  -0.03008  -0.00578
           A5           0.00134   0.00155   0.00155  -0.02942  -0.00603
           A6           0.00134   0.00155   0.00155  -0.02942  -0.00603
           D1           0.00060   0.00049   0.00049  -0.00425  -0.00076
           D2          -0.00060  -0.00049  -0.00049   0.00425   0.00076
           D3          -0.00079  -0.00096  -0.00096   0.01962   0.00405
           D4           0.00034   0.00002   0.00002   0.00835   0.00191
           D5           0.00079   0.00096   0.00096  -0.01962  -0.00405
           D6          -0.00034  -0.00002  -0.00002  -0.00835  -0.00191
                          R6        A1        A2        A3        A4
           R6           0.57189
           A1           0.00286   0.24953
           A2           0.00286  -0.00047   0.24953
           A3          -0.00377   0.00070   0.00070   0.24896
           A4          -0.00578   0.00268   0.00268  -0.00377   0.14931
           A5          -0.00603   0.00165   0.00165  -0.00237  -0.00765
           A6          -0.00603   0.00165   0.00165  -0.00237  -0.00765
           D1          -0.00076   0.00052   0.00052  -0.00073  -0.00192
           D2           0.00076  -0.00052  -0.00052   0.00073   0.00192
           D3           0.00405  -0.00103  -0.00103   0.00149   0.00489
           D4           0.00191   0.00003   0.00003   0.00000   0.00074
           D5          -0.00405   0.00103   0.00103  -0.00149  -0.00489
           D6          -0.00191  -0.00003  -0.00003  -0.00000  -0.00074
                          A5        A6        D1        D2        D3
           A5           0.15489
           A6          -0.00511   0.15489
           D1          -0.00143  -0.00143   0.04438
           D2           0.00143   0.00143   0.00034   0.04438
           D3           0.00324   0.00324   0.00092  -0.00092   0.04263
           D4           0.00024   0.00024   0.00018  -0.00018  -0.00013
           D5          -0.00324  -0.00324  -0.00092   0.00092   0.00204
           D6          -0.00024  -0.00024  -0.00018   0.00018   0.00013
                          D4        D5        D6
           D4           0.04485
           D5           0.00013   0.04263
           D6          -0.00018  -0.00013   0.04485
 ITU=  1  0
 Use linear search instead of GDIIS.
     Eigenvalues ---    0.03671   0.04467   0.04472   0.04518   0.13491
     Eigenvalues ---    0.16000   0.16024   0.24719   0.24971   0.33349
     Eigenvalues ---    0.33545   0.33589   0.56497   0.57103   0.75319
 RFO step:  Lambda=-1.71477993D-03 EMin= 3.67141001D-02
 Quartic linear search produced a step of  0.33959.
 Iteration  1 RMS(Cart)=  0.06976455 RMS(Int)=  0.00382476
 Iteration  2 RMS(Cart)=  0.00340555 RMS(Int)=  0.00085930
 Iteration  3 RMS(Cart)=  0.00000612 RMS(Int)=  0.00085929
 Iteration  4 RMS(Cart)=  0.00000000 RMS(Int)=  0.00085929
 ITry= 1 IFail=0 DXMaxC= 1.48D-01 DCOld= 1.00D+10 DXMaxT= 5.05D-01 DXLimC= 3.00D+00 Rises=F
 ClnCor:  largest displacement from symmetrization is 1.72D-12 for atom     7.
 Variable       Old X    -DE/DX   Delta X   Delta X   Delta X     New X
                                 (Linear)    (Quad)   (Total)
    R1        3.24812  -0.00261  -0.00075  -0.00998  -0.01073   3.23739
    R2        3.24587  -0.00171  -0.00176  -0.00605  -0.00780   3.23806
    R3        3.24587  -0.00171  -0.00176  -0.00605  -0.00780   3.23806
    R4        1.82405   0.00107   0.02831  -0.01026   0.01805   1.84210
    R5        1.82568  -0.00046   0.00693  -0.00411   0.00283   1.82851
    R6        1.82568  -0.00046   0.00693  -0.00411   0.00283   1.82851
    A1        2.08687  -0.00154  -0.00251  -0.00888  -0.01335   2.07352
    A2        2.08687  -0.00154  -0.00251  -0.00888  -0.01335   2.07352
    A3        2.10566   0.00286   0.00374   0.01192   0.01359   2.11925
    A4        2.00358   0.00575   0.02254   0.03933   0.06187   2.06545
    A5        2.05217   0.00471   0.01380   0.03393   0.04773   2.09990
    A6        2.05217   0.00471   0.01380   0.03393   0.04773   2.09990
    D1        1.61718   0.00121   0.01575   0.03542   0.05039   1.66756
    D2       -1.61718  -0.00121  -0.01575  -0.03542  -0.05039  -1.66756
    D3       -2.20388  -0.00356  -0.03079  -0.09884  -0.12984  -2.33372
    D4        1.03149  -0.00086   0.00105  -0.02608  -0.02481   1.00668
    D5        2.20388   0.00356   0.03079   0.09884   0.12984   2.33372
    D6       -1.03149   0.00086  -0.00105   0.02608   0.02481  -1.00668
         Item               Value     Threshold  Converged?
 Maximum Force            0.005746     0.000450     NO 
 RMS     Force            0.002732     0.000300     NO 
 Maximum Displacement     0.147855     0.001800     NO 
 RMS     Displacement     0.069835     0.001200     NO 
 Predicted change in Energy=-8.906395D-04
 Lowest energy point so far.  Saving SCF results.
 GradGradGradGradGradGradGradGradGradGradGradGradGradGradGradGradGradGrad

 Leave Link  103 at Wed Jun 24 00:57:42 2026, MaxMem=  1879048192 cpu:               0.0 elap:               0.0
 (Enter /CH/g16/l202.exe)
                          Input orientation:                          
 ---------------------------------------------------------------------
 Center     Atomic      Atomic             Coordinates (Angstroms)
 Number     Number       Type             X           Y           Z
 ---------------------------------------------------------------------
      1         13           0       -0.009161    0.000000    0.118167
      2          8           0        1.699302   -0.000000   -0.008486
      3          8           0       -0.843222    1.494476    0.034530
      4          8           0       -0.843222   -1.494476    0.034530
      5          1           0        2.224226   -0.000000    0.812906
      6          1           0       -1.538962    1.701968    0.674177
      7          1           0       -1.538962   -1.701968    0.674177
 ---------------------------------------------------------------------
                    Distance matrix (angstroms):
                    1          2          3          4          5
     1  Al   0.000000
     2  O    1.713151   0.000000
     3  O    1.713508   2.949532   0.000000
     4  O    1.713508   2.949532   2.988951   0.000000
     5  H    2.338948   0.974798   3.499795   3.499795   0.000000
     6  H    2.355023   3.721435   0.967603   3.333235   4.132496
     7  H    2.355023   3.721435   3.333235   0.967603   4.132496
                    6          7
     6  H    0.000000
     7  H    3.403936   0.000000
 Stoichiometry    AlH3O3
 Framework group  CS[SG(AlHO),X(H2O2)]
 Deg. of freedom     9
 Full point group                 CS      NOp   2
 RotChk:  IX=0 Diff= 1.52D-01
 Largest Abelian subgroup         CS      NOp   2
 Largest concise Abelian subgroup CS      NOp   2
                         Standard orientation:                         
 ---------------------------------------------------------------------
 Center     Atomic      Atomic             Coordinates (Angstroms)
 Number     Number       Type             X           Y           Z
 ---------------------------------------------------------------------
      1         13           0        0.012293    0.013883   -0.000000
      2          8           0       -0.284193    1.701184   -0.000000
      3          8           0        0.012293   -0.824361    1.494476
      4          8           0        0.012293   -0.824361   -1.494476
      5          1           0        0.480725    2.305444   -0.000000
      6          1           0        0.718166   -1.452808    1.701968
      7          1           0        0.718166   -1.452808   -1.701968
 ---------------------------------------------------------------------
 Rotational constants (GHZ):           6.4178961           6.3039982           3.2396911
 Leave Link  202 at Wed Jun 24 00:57:42 2026, MaxMem=  1879048192 cpu:               0.0 elap:               0.0
 (Enter /CH/g16/l301.exe)
 Standard basis: def2SVP (5D, 7F)
 Ernie: Thresh=  0.10000D-02 Tol=  0.10000D-05 Strict=F.
 There are    49 symmetry adapted cartesian basis functions of A'  symmetry.
 There are    30 symmetry adapted cartesian basis functions of A"  symmetry.
 There are    46 symmetry adapted basis functions of A'  symmetry.
 There are    29 symmetry adapted basis functions of A"  symmetry.
    75 basis functions,   133 primitive gaussians,    79 cartesian basis functions
    20 alpha electrons       20 beta electrons
       nuclear repulsion energy       160.1787420033 Hartrees.
 IExCor=  402 DFT=T Ex+Corr=B3LYP ExCW=0 ScaHFX=  0.200000
 ScaDFX=  0.800000  0.720000  1.000000  0.810000 ScalE2=  1.000000  1.000000
 IRadAn=      5 IRanWt=     -1 IRanGd=            0 ICorTp=0 IEmpDi=141
 NAtoms=    7 NActive=    7 NUniq=    5 SFac= 1.96D+00 NAtFMM=   60 NAOKFM=F Big=F
 Integral buffers will be    131072 words long.
 Raffenetti 2 integral format.
 Two-electron integral symmetry is turned on.
 R6Disp:  Grimme-D3(BJ) Dispersion energy=       -0.0058784078 Hartrees.
 Nuclear repulsion after empirical dispersion term =      160.1728635955 Hartrees.
 ------------------------------------------------------------------------------
 Polarizable Continuum Model (PCM)
 =================================
 Model                : PCM.
 Atomic radii         : SMD-Coulomb.
 Polarization charges : Total charges.
 Charge compensation  : None.
 Solution method      : On-the-fly selection.
 Cavity type          : VdW (van der Waals Surface) (Alpha=1.000).
 Cavity algorithm     : GePol (No added spheres)
                        Default sphere list used, NSphG=    7.
                        Lebedev-Laikov grids with approx.  5.0 points / Ang**2.
                        Smoothing algorithm: York/Karplus (Gamma=1.0000).
                        Polarization charges: spherical gaussians, with
                                              point-specific exponents (IZeta= 3).
                        Self-potential: point-specific (ISelfS= 7).
                        Self-field    : sphere-specific E.n sum rule (ISelfD= 2).
 1st derivatives      : Analytical E(r).r(x)/FMM algorithm (CHGder, D1EAlg=3).
                        Cavity 1st derivative terms included.
 Solvent              : TetraHydroFuran, Eps=   7.425700 Eps(inf)=   1.974025
 ------------------------------------------------------------------------------
 Spheres list:
 ISph  on   Nord     Re0    Alpha      Xe            Ye            Ze
    1  Al      1    2.3000  1.000      0.012293      0.013883     -0.000000
    2   O      2    2.2940  1.000     -0.284193      1.701184     -0.000000
    3   O      3    2.2940  1.000      0.012293     -0.824361      1.494476
    4   O      4    2.2940  1.000      0.012293     -0.824361     -1.494476
    5   H      5    1.2000  1.000      0.480725      2.305444     -0.000000
    6   H      6    1.2000  1.000      0.718166     -1.452808      1.701968
    7   H      7    1.2000  1.000      0.718166     -1.452808     -1.701968
 ------------------------------------------------------------------------------
 GePol: Number of generator spheres                  =       7
 GePol: Total number of spheres                      =       7
 GePol: Number of exposed spheres                    =       4 ( 57.14%)
 GePol: Number of points                             =     989
 GePol: Average weight of points                     =       0.14
 GePol: Minimum weight of points                     =   0.27D-04
 GePol: Maximum weight of points                     =    0.16851
 GePol: Number of points with low weight             =      22
 GePol: Fraction of low-weight points (<1% of avg)   =       2.22%
 GePol: Cavity surface area                          =    137.768 Ang**2
 GePol: Cavity volume                                =    130.910 Ang**3
 ------------------------------------------------------------------------------
 Atomic radii for non-electrostatic terms: SMD-CDS.
 ------------------------------------------------------------------------------
 PCM non-electrostatic energy =        -0.0013541446 Hartrees.
 Nuclear repulsion after PCM non-electrostatic terms =      160.1715094509 Hartrees.
 Leave Link  301 at Wed Jun 24 00:57:42 2026, MaxMem=  1879048192 cpu:               0.0 elap:               0.0
 (Enter /CH/g16/l302.exe)
 NPDir=0 NMtPBC=     1 NCelOv=     1 NCel=       1 NClECP=     1 NCelD=      1
         NCelK=      1 NCelE2=     1 NClLst=     1 CellRange=     0.0.
 One-electron integrals computed using PRISM.
 One-electron integral symmetry used in STVInt
   2 Symmetry operations used in ECPInt.
 ECPInt:  NShTT=     630 NPrTT=    2486 LenC2=     628 LenP2D=    2063.
 LDataN:  DoStor=T MaxTD1= 4 Len=   56
 NBasis=    75 RedAO= T EigKep=  2.42D-02  NBF=    46    29
 NBsUse=    75 1.00D-06 EigRej= -1.00D+00 NBFU=    46    29
 Precomputing XC quadrature grid using
 IXCGrd= 4 IRadAn=           5 IRanWt=          -1 IRanGd=           0 AccXCQ= 0.00D+00.
 Generated NRdTot=       0 NPtTot=           0 NUsed=           0 NTot=          32
 NSgBfM=    79    79    79    79    79 MxSgAt=     7 MxSgA2=     7.
 Leave Link  302 at Wed Jun 24 00:57:42 2026, MaxMem=  1879048192 cpu:               0.3 elap:               0.1
 (Enter /CH/g16/l303.exe)
 DipDrv:  MaxL=1.
 Leave Link  303 at Wed Jun 24 00:57:42 2026, MaxMem=  1879048192 cpu:               0.0 elap:               0.0
 (Enter /CH/g16/l401.exe)
 Initial guess from the checkpoint file:  "AlOH3.chk"
 B after Tr=    -0.000000    0.000000    0.000000
         Rot=    0.998398   -0.000000   -0.000000   -0.056582 Ang=  -6.49 deg.
 Guess basis will be translated and rotated to current coordinates.
 JPrj=2 DoOrth=T DoCkMO=T.
 Initial guess orbital symmetries:
       Occupied  (A') (A') (A") (A') (A') (A') (A") (A') (A') (A')
                 (A") (A') (A") (A') (A') (A') (A") (A') (A") (A")
       Virtual   (A') (A') (A') (A") (A') (A") (A') (A') (A') (A')
                 (A") (A") (A') (A') (A') (A") (A') (A') (A") (A")
                 (A') (A") (A') (A") (A') (A') (A') (A") (A") (A')
                 (A') (A") (A") (A') (A') (A") (A') (A') (A") (A')
                 (A") (A') (A") (A') (A") (A') (A') (A") (A") (A')
                 (A") (A') (A') (A') (A")
 The electronic state of the initial guess is 1-A'.
 Generating alternative initial guess.
 ExpMin= 5.44D-02 ExpMax= 5.89D+03 ExpMxC= 8.86D+02 IAcc=3 IRadAn=         5 AccDes= 0.00D+00
 Harris functional with IExCor=  402 and IRadAn=       5 diagonalized for initial guess.
 HarFok:  IExCor=  402 AccDes= 0.00D+00 IRadAn=         5 IDoV= 1 UseB2=F ITyADJ=14
 ICtDFT=  3500011 ScaDFX=  1.000000  1.000000  1.000000  1.000000
 FoFCou: FMM=F IPFlag=           0 FMFlag=      100000 FMFlg1=           0
         NFxFlg=           0 DoJE=T BraDBF=F KetDBF=T FulRan=T
         wScrn=  0.000000 ICntrl=       500 IOpCl=  0 I1Cent=   200000004 NGrid=           0
         NMat0=    1 NMatS0=      1 NMatT0=    0 NMatD0=    1 NMtDS0=    0 NMtDT0=    0
 Petite list used in FoFCou.
 Harris En= -469.945214404439    
 Leave Link  401 at Wed Jun 24 00:57:42 2026, MaxMem=  1879048192 cpu:               0.6 elap:               0.1
 (Enter /CH/g16/l502.exe)
 Keep R1 ints in memory in symmetry-blocked form, NReq=11285227.
 FoFCou: FMM=F IPFlag=           0 FMFlag=           0 FMFlg1=           0
         NFxFlg=           0 DoJE=F BraDBF=F KetDBF=F FulRan=T
         wScrn=  0.000000 ICntrl=       600 IOpCl=  0 I1Cent=           0 NGrid=           0
         NMat0=    1 NMatS0=   2850 NMatT0=    0 NMatD0=    1 NMtDS0=    0 NMtDT0=    0
 Petite list used in FoFCou.
 Closed shell SCF:
 Using DIIS extrapolation, IDIIS=  1040.
 NGot=  1879048192 LenX=  1876986993 LenY=  1876980311
 Requested convergence on RMS density matrix=1.00D-08 within 128 cycles.
 Requested convergence on MAX density matrix=1.00D-06.
 Requested convergence on             energy=1.00D-06.
 No special actions if energy rises.

 Cycle   1  Pass 1  IDiag  1:
 Inv3:  Mode=1 IEnd=     2934363.
 Iteration    1 A*A^-1 deviation from unit magnitude is 3.44D-15 for    381.
 Iteration    1 A*A^-1 deviation from orthogonality  is 1.29D-15 for    542    422.
 Iteration    1 A^-1*A deviation from unit magnitude is 3.00D-15 for    381.
 Iteration    1 A^-1*A deviation from orthogonality  is 1.67D-15 for    644     93.
 E= -469.834120244605    
 DIIS: error= 5.86D-03 at cycle   1 NSaved=   1.
 NSaved= 1 IEnMin= 1 EnMin= -469.834120244605     IErMin= 1 ErrMin= 5.86D-03
 ErrMax= 5.86D-03  0.00D+00 EMaxC= 1.00D-01 BMatC= 3.56D-03 BMatP= 3.56D-03
 IDIUse=3 WtCom= 9.41D-01 WtEn= 5.86D-02
 Coeff-Com:  0.100D+01
 Coeff-En:   0.100D+01
 Coeff:      0.100D+01
 Gap=     0.262 Goal=   None    Shift=    0.000
 GapD=    0.262 DampG=1.000 DampE=1.000 DampFc=1.0000 IDamp=-1.
 RMSDP=1.29D-03 MaxDP=1.77D-02              OVMax= 2.14D-02

 Cycle   2  Pass 1  IDiag  1:
 E= -469.838646555712     Delta-E=       -0.004526311106 Rises=F Damp=F
 DIIS: error= 6.60D-04 at cycle   2 NSaved=   2.
 NSaved= 2 IEnMin= 2 EnMin= -469.838646555712     IErMin= 2 ErrMin= 6.60D-04
 ErrMax= 6.60D-04  0.00D+00 EMaxC= 1.00D-01 BMatC= 5.73D-05 BMatP= 3.56D-03
 IDIUse=3 WtCom= 9.93D-01 WtEn= 6.60D-03
 Coeff-Com: -0.348D-01 0.103D+01
 Coeff-En:   0.000D+00 0.100D+01
 Coeff:     -0.346D-01 0.103D+01
 Gap=     0.261 Goal=   None    Shift=    0.000
 RMSDP=1.45D-04 MaxDP=3.57D-03 DE=-4.53D-03 OVMax= 2.54D-03

 Cycle   3  Pass 1  IDiag  1:
 E= -469.838687612619     Delta-E=       -0.000041056907 Rises=F Damp=F
 DIIS: error= 4.19D-04 at cycle   3 NSaved=   3.
 NSaved= 3 IEnMin= 3 EnMin= -469.838687612619     IErMin= 3 ErrMin= 4.19D-04
 ErrMax= 4.19D-04  0.00D+00 EMaxC= 1.00D-01 BMatC= 1.92D-05 BMatP= 5.73D-05
 IDIUse=3 WtCom= 9.96D-01 WtEn= 4.19D-03
 Coeff-Com: -0.193D-01 0.373D+00 0.647D+00
 Coeff-En:   0.000D+00 0.000D+00 0.100D+01
 Coeff:     -0.192D-01 0.371D+00 0.648D+00
 Gap=     0.260 Goal=   None    Shift=    0.000
 RMSDP=6.86D-05 MaxDP=1.72D-03 DE=-4.11D-05 OVMax= 1.30D-03

 Cycle   4  Pass 1  IDiag  1:
 E= -469.838698652798     Delta-E=       -0.000011040179 Rises=F Damp=F
 DIIS: error= 2.39D-04 at cycle   4 NSaved=   4.
[...]
         NFxFlg=           0 DoJE=F BraDBF=F KetDBF=F FulRan=T
         wScrn=  0.000000 ICntrl=      2127 IOpCl=  0 I1Cent=           0 NGrid=           0
         NMat0=    1 NMatS0=      1 NMatT0=    0 NMatD0=    1 NMtDS0=    0 NMtDT0=    0
 Petite list used in FoFCou.
 Leave Link  703 at Wed Jun 24 00:58:07 2026, MaxMem=  1879048192 cpu:               0.9 elap:               0.1
 (Enter /CH/g16/l716.exe)
 Dipole        = 5.56770834D-01-1.03613369D+00-4.44089210D-16
 ***** Axes restored to original set *****
 -------------------------------------------------------------------
 Center     Atomic                   Forces (Hartrees/Bohr)
 Number     Number              X              Y              Z
 -------------------------------------------------------------------
      1       13           0.000043868   -0.000000000   -0.000010717
      2        8           0.000004289   -0.000000000    0.000007188
      3        8          -0.000033385   -0.000007419    0.000000531
      4        8          -0.000033385    0.000007419    0.000000531
      5        1          -0.000000866   -0.000000000   -0.000023039
      6        1           0.000009739    0.000006524    0.000012753
      7        1           0.000009739   -0.000006524    0.000012753
 -------------------------------------------------------------------
 Cartesian Forces:  Max     0.000043868 RMS     0.000016302
 Leave Link  716 at Wed Jun 24 00:58:07 2026, MaxMem=  1879048192 cpu:               0.0 elap:               0.0
 (Enter /CH/g16/l103.exe)

 GradGradGradGradGradGradGradGradGradGradGradGradGradGradGradGradGradGrad
 Berny optimization.
 Using GEDIIS/GDIIS optimizer.
 FormGI is forming the generalized inverse of G from B-inverse, IUseBI=4.
 Internal  Forces:  Max     0.000037894 RMS     0.000013146
 Search for a local minimum.
 Step number  16 out of a maximum of   28
 All quantities printed in internal units (Hartrees-Bohrs-Radians)
 RMS Force = .13146D-04 SwitMx=.10000D-02 MixMth= 2
 Mixed Optimization -- En-DIIS/RFO-DIIS
 Swapping is turned off.
 Update second derivatives using D2CorX and points    7    8    9   10   11
                                                     12   13   14   15   16
 DE= -1.37D-08 DEPred=-8.14D-08 R= 1.68D-01
 Trust test= 1.68D-01 RLast= 7.51D-03 DXMaxT set to 7.93D-01
 The second derivative matrix:
                          R1        R2        R3        R4        R5
           R1           0.32266
           R2           0.00176   0.33055
           R3           0.00176  -0.00491   0.33055
           R4           0.00107   0.00012   0.00012   0.75010
           R5           0.00179  -0.00396  -0.00396   0.03080   0.57260
           R6           0.00179  -0.00396  -0.00396   0.03080   0.00764
           A1           0.00354  -0.00173  -0.00173   0.00255   0.00031
           A2           0.00354  -0.00173  -0.00173   0.00255   0.00031
           A3          -0.00743   0.00286   0.00286   0.03692   0.00889
           A4           0.04493   0.00054   0.00054   0.03592   0.00253
           A5          -0.00044   0.02017   0.02017   0.00461   0.00956
           A6          -0.00044   0.02017   0.02017   0.00461   0.00956
           D1          -0.00001  -0.00016  -0.00016  -0.00443  -0.00081
           D2           0.00001   0.00016   0.00016   0.00443   0.00081
           D3          -0.00032  -0.00029  -0.00029   0.00733   0.00148
           D4          -0.00033  -0.00011  -0.00011  -0.00391  -0.00144
           D5           0.00032   0.00029   0.00029  -0.00733  -0.00148
           D6           0.00033   0.00011   0.00011   0.00391   0.00144
                          R6        A1        A2        A3        A4
           R6           0.57260
           A1           0.00031   0.23226
           A2           0.00031  -0.01774   0.23226
           A3           0.00889   0.02827   0.02827   0.19116
           A4           0.00253   0.00178   0.00178   0.00124   0.03107
           A5           0.00956   0.01071   0.01071  -0.01838   0.00121
           A6           0.00956   0.01071   0.01071  -0.01838   0.00121
           D1          -0.00081   0.00309   0.00309  -0.00227  -0.00128
           D2           0.00081  -0.00309  -0.00309   0.00227   0.00128
           D3           0.00148  -0.00163  -0.00163   0.00082   0.00194
           D4          -0.00144   0.00373   0.00373  -0.00421  -0.00060
           D5          -0.00148   0.00163   0.00163  -0.00082  -0.00194
           D6           0.00144  -0.00373  -0.00373   0.00421   0.00060
                          A5        A6        D1        D2        D3
           A5           0.10871
           A6          -0.05129   0.10871
           D1           0.00065   0.00065   0.04322
           D2          -0.00065  -0.00065   0.00150   0.04322
           D3           0.00003   0.00003   0.00099  -0.00099   0.03437
           D4           0.00161   0.00161  -0.00219   0.00219  -0.00841
           D5          -0.00003  -0.00003  -0.00099   0.00099   0.01030
           D6          -0.00161  -0.00161   0.00219  -0.00219   0.00841
                          D4        D5        D6
           D4           0.03184
           D5           0.00841   0.03437
           D6           0.01283  -0.00841   0.03184
 ITU=  0 -1  1  1  1  1  1  1  1  1  1  1  1  1  1  0
     Eigenvalues ---    0.00411   0.02199   0.03499   0.04079   0.04467
     Eigenvalues ---    0.04472   0.16000   0.17021   0.24986   0.32802
     Eigenvalues ---    0.33328   0.33545   0.56497   0.57053   0.76427
 En-DIIS/RFO-DIIS/Sim-DIIS IScMMF=       -3 using points:    16   15   14   13   12   11   10
 RFO step:  Lambda=-2.69816969D-08.
 NNeg= 0 NGDIIS= 7 SimSw=  2.50D-03 Rises=F DC= -1.37D-08 SmlDif=  1.00D-05
 NRisDI= 0 DoIntr=F SqrtH=F CThrHd= 10.0 CDAdj=  3.0
 RMS Error=  0.3175660255D-03 NUsed= 7 OKEnD=F EnDIS=F
 InvSVX:  RCond= 1.19D-10 Info=           0 Equed=N FErr=  1.39D-09 BErr=  4.31D-17
 DIIS inversion failure, remove point   7.
 InvSVX:  RCond= 2.85D-09 Info=           0 Equed=N FErr=  8.22D-11 BErr=  4.81D-17
 DIIS inversion failure, remove point   6.
 InvSVX:  RCond= 4.50D-08 Info=           0 Equed=N FErr=  4.00D-13 BErr=  1.15D-17
 DIIS inversion failure, remove point   5.
 InvSVX:  RCond= 2.19D-07 Info=           0 Equed=N FErr=  5.07D-14 BErr=  1.11D-16
 RFO-DIIS uses    4 points instead of    7
 DidBck=T Rises=F RFO-DIIS coefs:    0.75919    0.29985   -0.08637    0.02734    0.00000
                  RFO-DIIS coefs:    0.00000    0.00000
 Iteration  1 RMS(Cart)=  0.00020455 RMS(Int)=  0.00000015
 Iteration  2 RMS(Cart)=  0.00000004 RMS(Int)=  0.00000014
 ITry= 1 IFail=0 DXMaxC= 3.19D-04 DCOld= 1.00D+10 DXMaxT= 7.93D-01 DXLimC= 3.00D+00 Rises=F
 ClnCor:  largest displacement from symmetrization is 1.35D-13 for atom     7.
 Variable       Old X    -DE/DX   Delta X   Delta X   Delta X     New X
                                 (Linear)    (Quad)   (Total)
    R1        3.21247   0.00000  -0.00002  -0.00002  -0.00004   3.21243
    R2        3.22145   0.00001   0.00004  -0.00001   0.00002   3.22147
    R3        3.22145   0.00001   0.00004  -0.00001   0.00002   3.22147
    R4        1.81810  -0.00001  -0.00004   0.00002  -0.00002   1.81808
    R5        1.82145  -0.00001   0.00000  -0.00002  -0.00001   1.82143
    R6        1.82145  -0.00001   0.00000  -0.00002  -0.00001   1.82143
    A1        2.05514   0.00002  -0.00004   0.00014   0.00009   2.05524
    A2        2.05514   0.00002  -0.00004   0.00014   0.00009   2.05524
    A3        2.17087  -0.00004   0.00009  -0.00027  -0.00018   2.17069
    A4        2.19123   0.00001   0.00018   0.00010   0.00028   2.19151
    A5        2.14465   0.00001  -0.00009   0.00016   0.00008   2.14473
    A6        2.14465   0.00001  -0.00009   0.00016   0.00008   2.14473
    D1        1.60346  -0.00000  -0.00001  -0.00002  -0.00003   1.60343
    D2       -1.60346   0.00000   0.00001   0.00002   0.00003  -1.60343
    D3        3.07039   0.00001   0.00052   0.00004   0.00057   3.07095
    D4       -0.00114   0.00000   0.00050  -0.00001   0.00049  -0.00065
    D5       -3.07039  -0.00001  -0.00052  -0.00004  -0.00057  -3.07095
    D6        0.00114  -0.00000  -0.00050   0.00001  -0.00049   0.00065
         Item               Value     Threshold  Converged?
 Maximum Force            0.000038     0.000450     YES
 RMS     Force            0.000013     0.000300     YES
 Maximum Displacement     0.000319     0.001800     YES
 RMS     Displacement     0.000205     0.001200     YES
 Predicted change in Energy=-1.333217D-08
 Optimization completed.
    -- Stationary point found.
                           ----------------------------
                           !   Optimized Parameters   !
                           ! (Angstroms and Degrees)  !
 --------------------------                            --------------------------
 ! Name  Definition              Value          Derivative Info.                !
 --------------------------------------------------------------------------------
 ! R1    R(1,2)                  1.7            -DE/DX =    0.0                 !
 ! R2    R(1,3)                  1.7047         -DE/DX =    0.0                 !
 ! R3    R(1,4)                  1.7047         -DE/DX =    0.0                 !
 ! R4    R(2,5)                  0.9621         -DE/DX =    0.0                 !
 ! R5    R(3,6)                  0.9639         -DE/DX =    0.0                 !
 ! R6    R(4,7)                  0.9639         -DE/DX =    0.0                 !
 ! A1    A(2,1,3)              117.7511         -DE/DX =    0.0                 !
 ! A2    A(2,1,4)              117.7511         -DE/DX =    0.0                 !
 ! A3    A(3,1,4)              124.3818         -DE/DX =    0.0                 !
 ! A4    A(1,2,5)              125.5484         -DE/DX =    0.0                 !
 ! A5    A(1,3,6)              122.8796         -DE/DX =    0.0                 !
 ! A6    A(1,4,7)              122.8796         -DE/DX =    0.0                 !
 ! D1    D(3,1,2,5)             91.8716         -DE/DX =    0.0                 !
 ! D2    D(4,1,2,5)            -91.8716         -DE/DX =    0.0                 !
 ! D3    D(2,1,3,6)            175.9201         -DE/DX =    0.0                 !
 ! D4    D(4,1,3,6)             -0.0655         -DE/DX =    0.0                 !
 ! D5    D(2,1,4,7)           -175.9201         -DE/DX =    0.0                 !
 ! D6    D(3,1,4,7)              0.0655         -DE/DX =    0.0                 !
 --------------------------------------------------------------------------------
 Largest change from initial coordinates is atom    6       0.815 Angstoms.
 GradGradGradGradGradGradGradGradGradGradGradGradGradGradGradGradGradGrad

 Leave Link  103 at Wed Jun 24 00:58:07 2026, MaxMem=  1879048192 cpu:               0.0 elap:               0.0
 (Enter /CH/g16/l202.exe)
                          Input orientation:                          
 ---------------------------------------------------------------------
 Center     Atomic      Atomic             Coordinates (Angstroms)
 Number     Number       Type             X           Y           Z
 ---------------------------------------------------------------------
      1         13           0        0.027402    0.000000    0.242525
      2          8           0        1.704869    0.000000   -0.033137
      3          8           0       -0.763853    1.507836    0.322621
      4          8           0       -0.763853   -1.507836    0.322621
      5          1           0        2.383754    0.000000    0.648583
      6          1           0       -1.719160    1.593024    0.418393
      7          1           0       -1.719160   -1.593024    0.418393
 ---------------------------------------------------------------------
                    Distance matrix (angstroms):
                    1          2          3          4          5
     1  Al   0.000000
     2  O    1.699967   0.000000
     3  O    1.704720   2.914571   0.000000
     4  O    1.704720   2.914571   3.015672   0.000000
     5  H    2.391083   0.962095   3.505317   3.505317   0.000000
     6  H    2.370471   3.803364   0.963868   3.246092   4.407337
     7  H    2.370471   3.803364   3.246092   0.963868   4.407337
                    6          7
     6  H    0.000000
     7  H    3.186047   0.000000
 Stoichiometry    AlH3O3
 Framework group  CS[SG(AlHO),X(H2O2)]
 Deg. of freedom     9
 Full point group                 CS      NOp   2
 RotChk:  IX=3 Diff= 1.36D-14
 Largest Abelian subgroup         CS      NOp   2
 Largest concise Abelian subgroup CS      NOp   2
                         Standard orientation:                         
 ---------------------------------------------------------------------
 Center     Atomic      Atomic             Coordinates (Angstroms)
 Number     Number       Type             X           Y           Z
 ---------------------------------------------------------------------
      1         13           0        0.005451    0.008739    0.000000
      2          8           0       -0.028130    1.708374    0.000000
      3          8           0       -0.028130   -0.785849    1.507836
      4          8           0       -0.028130   -0.785849   -1.507836
      5          1           0        0.743451    2.283082    0.000000
      6          1           0       -0.069596   -1.745049    1.593024
      7          1           0       -0.069596   -1.745049   -1.593024
 ---------------------------------------------------------------------
 Rotational constants (GHZ):           6.4461295           6.4450705           3.2457383
 Leave Link  202 at Wed Jun 24 00:58:07 2026, MaxMem=  1879048192 cpu:               0.0 elap:               0.0
 (Enter /CH/g16/l601.exe)
 Copying SCF densities to generalized density rwf, IOpCl= 0 IROHF=0.

 **********************************************************************

            Population analysis using the SCF Density.

 **********************************************************************

 Orbital symmetries:
       Occupied  (A') (A') (A") (A') (A') (A') (A") (A') (A') (A")
                 (A') (A') (A") (A') (A') (A') (A') (A") (A") (A")
       Virtual   (A') (A') (A') (A") (A') (A') (A") (A') (A') (A")
                 (A') (A') (A") (A") (A') (A') (A') (A") (A') (A")
                 (A') (A") (A") (A') (A') (A') (A") (A') (A") (A')
                 (A') (A') (A") (A") (A") (A') (A') (A') (A") (A')
                 (A") (A') (A") (A') (A") (A') (A') (A") (A") (A')
                 (A") (A') (A') (A') (A")
 The electronic state is 1-A'.
 Alpha  occ. eigenvalues --  -56.02818 -19.10627 -19.10627 -19.10045  -4.12983
 Alpha  occ. eigenvalues --   -2.68978  -2.68396  -2.68355  -0.94904  -0.93748
 Alpha  occ. eigenvalues --   -0.93478  -0.50768  -0.47405  -0.46264  -0.35092
 Alpha  occ. eigenvalues --   -0.33178  -0.31074  -0.30955  -0.29940  -0.29724
 Alpha virt. eigenvalues --   -0.01432   0.03932   0.07468   0.09233   0.12879
 Alpha virt. eigenvalues --    0.17195   0.17493   0.21859   0.32484   0.41029
 Alpha virt. eigenvalues --    0.42102   0.47154   0.52510   0.65226   0.66062
 Alpha virt. eigenvalues --    0.67233   0.70368   0.83082   0.84693   0.97598
 Alpha virt. eigenvalues --    1.00123   1.00173   1.00875   1.01747   1.06977
 Alpha virt. eigenvalues --    1.10828   1.19447   1.19573   1.27087   1.30260
 Alpha virt. eigenvalues --    1.38526   1.47936   1.50676   1.54322   1.72808
 Alpha virt. eigenvalues --    1.72831   1.82584   2.23700   2.24232   2.25314
 Alpha virt. eigenvalues --    2.70308   2.70729   2.71999   2.83075   2.86903
 Alpha virt. eigenvalues --    2.88105   2.97379   2.98051   3.00508   3.06292
 Alpha virt. eigenvalues --    3.17446   3.24913   3.69692   3.70508   3.71904
          Condensed to atoms (all electrons):
               1          2          3          4          5          6
     1  Al  10.989494   0.433085   0.411021   0.411021  -0.041459  -0.031579
     2  O    0.433085   7.737920  -0.004428  -0.004428   0.329778   0.000325
     3  O    0.411021  -0.004428   7.755719  -0.006635  -0.000359   0.326746
     4  O    0.411021  -0.004428  -0.006635   7.755719  -0.000359  -0.000963
     5  H   -0.041459   0.329778  -0.000359  -0.000359   0.513122  -0.000078
     6  H   -0.031579   0.000325   0.326746  -0.000963  -0.000078   0.508261
     7  H   -0.031579   0.000325  -0.000963   0.326746  -0.000078  -0.000390
               7
     1  Al  -0.031579
     2  O    0.000325
     3  O   -0.000963
     4  O    0.326746
     5  H   -0.000078
     6  H   -0.000390
     7  H    0.508261
 Mulliken charges:
               1
     1  Al   0.859995
     2  O   -0.492577
     3  O   -0.481102
     4  O   -0.481102
     5  H    0.199433
     6  H    0.197677
     7  H    0.197677
 Sum of Mulliken charges =  -0.00000
 Mulliken charges with hydrogens summed into heavy atoms:
               1
     1  Al   0.859995
     2  O   -0.293144
     3  O   -0.283425
     4  O   -0.283425
 Electronic spatial extent (au):  <R**2>=            369.0246
 Charge=             -0.0000 electrons
 Dipole moment (field-independent basis, Debye):
    X=              1.4152    Y=             -2.6336    Z=             -0.0000  Tot=              2.9897
 Quadrupole moment (field-independent basis, Debye-Ang):
   XX=            -25.2311   YY=            -20.4909   ZZ=            -34.8273
   XY=              3.9199   XZ=              0.0000   YZ=              0.0000
 Traceless Quadrupole moment (field-independent basis, Debye-Ang):
   XX=              1.6186   YY=              6.3589   ZZ=             -7.9775
   XY=              3.9199   XZ=              0.0000   YZ=              0.0000
 Octapole moment (field-independent basis, Debye-Ang**2):
  XXX=              1.4096  YYY=            -14.1601  ZZZ=             -0.0000  XYY=              7.9528
  XXY=              2.5818  XXZ=             -0.0000  XZZ=             -0.0657  YZZ=             -5.1622
  YYZ=             -0.0000  XYZ=             -0.0000
 Hexadecapole moment (field-independent basis, Debye-Ang**3):
 XXXX=            -25.6918 YYYY=           -143.2477 ZZZZ=           -217.6945 XXXY=             -0.3060
 XXXZ=             -0.0000 YYYX=             18.7424 YYYZ=              0.0000 ZZZX=              0.0000
 ZZZY=              0.0000 XXYY=            -32.6744 XXZZ=            -39.3214 YYZZ=            -46.4646
 XXYZ=              0.0000 YYXZ=              0.0000 ZZXY=              0.2737
 N-N= 1.609260437120D+02 E-N=-1.438820481001D+03  KE= 4.672978726834D+02
 Symmetry A'   KE= 3.666098199155D+02
 Symmetry A"   KE= 1.006880527679D+02
 No NMR shielding tensors so no spin-rotation constants.
 Leave Link  601 at Wed Jun 24 00:58:07 2026, MaxMem=  1879048192 cpu:               0.3 elap:               0.1
 (Enter /CH/g16/l9999.exe)
 Unable to Open any file for archive entry.
 1\1\GINC-NODE0-CHCLUSTER\FOpt\RB3LYP\def2SVP\Al1H3O3\LS\24-Jun-2026\0\
 \#p B3LYP/def2SVP EmpiricalDispersion=GD3BJ opt SCRF=(SMD,Solvent=Tetr
 ahydrofuran) int=ultrafine\\AlOH3\\0,1\Al,0.0274018294,0.,0.2425251828
 \O,1.704869303,0.,-0.0331372017\O,-0.7638528033,1.5078360231,0.3226212
 722\O,-0.7638528033,-1.5078360231,0.3226212722\H,2.3837541692,0.,0.648
 5833859\H,-1.7191598475,1.593023654,0.4183930443\H,-1.7191598475,-1.59
 3023654,0.4183930443\\Version=ES64L-G16RevC.02\State=1-A'\HF=-469.8447
 613\RMSD=4.050e-09\RMSF=1.630e-05\Dipole=-0.946126,0.,0.698865\Quadrup
 ole=5.478872,-5.9311066,0.4522346,0.,2.298255,0.\PG=CS [SG(Al1H1O1),X(
 H2O2)]\\@
 The archive entry for this job was punched.


 THE MORE ACCURATE THE CALCULATIONS BECOME, THE MORE THE CONCEPTS
 TEND TO VANISH INTO THIN AIR.
     -- R.S. MULLIKEN, J.C.P. 43,S2(1965)
 Job cpu time:       0 days  0 hours  3 minutes  0.8 seconds.
 Elapsed time:       0 days  0 hours  0 minutes 27.4 seconds.
 File lengths (MBytes):  RWF=     23 Int=      0 D2E=      0 Chk=      3 Scr=      1
 Normal termination of Gaussian 16 at Wed Jun 24 00:58:07 2026.
