 Entering Gaussian System, Link 0=/CH/g16/g16
 Initial command:
 /CH/g16/l1.exe "/tmp/g16tz_AlOH3_tz_2947290/Gau-2947328.inp" -scrdir="/tmp/g16tz_AlOH3_tz_2947290/"
 Default is to use a total of  96 processors:
                               96 via shared-memory
                                1 via Linda
 Entering Link 1 = /CH/g16/l1.exe PID=   2947447.
  
 Copyright (c) 1988-2021, Gaussian, Inc.  All Rights Reserved.
  
 This is part of the Gaussian(R) 16 program.  It is based on
 the Gaussian(R) 09 system (copyright 2009, Gaussian, Inc.),
 the Gaussian(R) 03 system (copyright 2003, Gaussian, Inc.),
 the Gaussian(R) 98 system (copyright 1998, Gaussian, Inc.),
 the Gaussian(R) 94 system (copyright 1995, Gaussian, Inc.),
 the Gaussian 92(TM) system (copyright 1992, Gaussian, Inc.),
 the Gaussian 90(TM) system (copyright 1990, Gaussian, Inc.),
 the Gaussian 88(TM) system (copyright 1988, Gaussian, Inc.),
 the Gaussian 86(TM) system (copyright 1986, Carnegie Mellon
 University), and the Gaussian 82(TM) system (copyright 1983,
 Carnegie Mellon University). Gaussian is a federally registered
 trademark of Gaussian, Inc.
  
 This software contains proprietary and confidential information,
 including trade secrets, belonging to Gaussian, Inc.
  
 This software is provided under written license and may be
 used, copied, transmitted, or stored only in accord with that
 written license.
  
 The following legend is applicable only to US Government
 contracts under FAR:
  
                    RESTRICTED RIGHTS LEGEND
  
 Use, reproduction and disclosure by the US Government is
 subject to restrictions as set forth in subparagraphs (a)
 and (c) of the Commercial Computer Software - Restricted
 Rights clause in FAR 52.227-19.
  
 Gaussian, Inc.
 340 Quinnipiac St., Bldg. 40, Wallingford CT 06492
  
  
 ---------------------------------------------------------------
 Warning -- This program may not be used in any manner that
 competes with the business of Gaussian, Inc. or will provide
 assistance to any competitor of Gaussian, Inc.  The licensee
 of this program is prohibited from giving any competitor of
 Gaussian, Inc. access to this program.  By using this program,
 the user acknowledges that Gaussian, Inc. is engaged in the
 business of creating and licensing software in the field of
 computational chemistry and represents and warrants to the
 licensee that it is not a competitor of Gaussian, Inc. and that
 it will not use this program in any manner prohibited above.
 ---------------------------------------------------------------
  

 Cite this work as:
 Gaussian 16, Revision C.02,
 M. J. Frisch, G. W. Trucks, H. B. Schlegel, G. E. Scuseria, 
 M. A. Robb, J. R. Cheeseman, G. Scalmani, V. Barone, 
 G. A. Petersson, H. Nakatsuji, X. Li, M. Caricato, A. V. Marenich, 
 J. Bloino, B. G. Janesko, R. Gomperts, B. Mennucci, H. P. Hratchian, 
 J. V. Ortiz, A. F. Izmaylov, J. L. Sonnenberg, D. Williams-Young, 
 F. Ding, F. Lipparini, F. Egidi, J. Goings, B. Peng, A. Petrone, 
 T. Henderson, D. Ranasinghe, V. G. Zakrzewski, J. Gao, N. Rega, 
 G. Zheng, W. Liang, M. Hada, M. Ehara, K. Toyota, R. Fukuda, 
 J. Hasegawa, M. Ishida, T. Nakajima, Y. Honda, O. Kitao, H. Nakai, 
 T. Vreven, K. Throssell, J. A. Montgomery, Jr., J. E. Peralta, 
 F. Ogliaro, M. J. Bearpark, J. J. Heyd, E. N. Brothers, K. N. Kudin, 
 V. N. Staroverov, T. A. Keith, R. Kobayashi, J. Normand, 
 K. Raghavachari, A. P. Rendell, J. C. Burant, S. S. Iyengar, 
 J. Tomasi, M. Cossi, J. M. Millam, M. Klene, C. Adamo, R. Cammi, 
 J. W. Ochterski, R. L. Martin, K. Morokuma, O. Farkas, 
 J. B. Foresman, and D. J. Fox, Gaussian, Inc., Wallingford CT, 2019.
 
 ******************************************
 Gaussian 16:  ES64L-G16RevC.02  7-Dec-2021
                24-Jun-2026 
 ******************************************
 %chk=AlOH3_tz.chk
 %nprocshared=8
 Will use up to    8 processors via shared memory.
 %mem=14GB
 ----------------------------------------------------------------------
 #p B3LYP/def2TZVP EmpiricalDispersion=GD3BJ SCRF=(SMD,Solvent=Tetrahyd
 rofuran) int=ultrafine
 ----------------------------------------------------------------------
 1/38=1,172=1/1;
 2/12=2,17=6,18=5,40=1/2;
 3/5=44,7=101,11=2,25=1,30=1,70=32201,72=20,74=-5,75=-5,124=41/1,2,3;
 4//1;
 5/5=2,38=5,53=20/2;
 6/7=2,8=2,9=2,10=2,28=1/1;
 99/5=1,9=1/99;
 Leave Link    1 at Wed Jun 24 01:17:41 2026, MaxMem=  1879048192 cpu:               3.6 elap:               0.1
 (Enter /CH/g16/l101.exe)
 --------
 AlOH3_tz
 --------
 Symbolic Z-matrix:
 Charge =  0 Multiplicity = 1
 Al                    0.00545   0.00874   0. 
 O                    -0.02813   1.70837   0. 
 O                    -0.02813  -0.78585   1.50784 
 O                    -0.02813  -0.78585  -1.50784 
 H                     0.74345   2.28308   0. 
 H                    -0.0696   -1.74505   1.59302 
 H                    -0.0696   -1.74505  -1.59302 
 
 ITRead=  0  0  0  0  0  0  0
 MicOpt= -1 -1 -1 -1 -1 -1 -1
 NAtoms=      7 NQM=        7 NQMF=       0 NMMI=      0 NMMIF=      0
                NMic=       0 NMicF=      0.
                    Isotopes and Nuclear Properties:
 (Nuclear quadrupole moments (NQMom) in fm**2, nuclear magnetic moments (NMagM)
  in nuclear magnetons)

  Atom         1           2           3           4           5           6           7
 IAtWgt=          27          16          16          16           1           1           1
 AtmWgt=  26.9815413  15.9949146  15.9949146  15.9949146   1.0078250   1.0078250   1.0078250
 NucSpn=           5           0           0           0           1           1           1
 AtZEff=  -0.0000000  -0.0000000  -0.0000000  -0.0000000  -0.0000000  -0.0000000  -0.0000000
 NQMom=   14.6600000   0.0000000   0.0000000   0.0000000   0.0000000   0.0000000   0.0000000
 NMagM=    3.6415040   0.0000000   0.0000000   0.0000000   2.7928460   2.7928460   2.7928460
 AtZNuc=  13.0000000   8.0000000   8.0000000   8.0000000   1.0000000   1.0000000   1.0000000
 Leave Link  101 at Wed Jun 24 01:17:41 2026, MaxMem=  1879048192 cpu:               0.1 elap:               0.1
 (Enter /CH/g16/l202.exe)
                          Input orientation:                          
 ---------------------------------------------------------------------
 Center     Atomic      Atomic             Coordinates (Angstroms)
 Number     Number       Type             X           Y           Z
 ---------------------------------------------------------------------
      1         13           0        0.005450    0.008740    0.000000
      2          8           0       -0.028130    1.708370    0.000000
      3          8           0       -0.028130   -0.785850    1.507840
      4          8           0       -0.028130   -0.785850   -1.507840
      5          1           0        0.743450    2.283080    0.000000
      6          1           0       -0.069600   -1.745050    1.593020
      7          1           0       -0.069600   -1.745050   -1.593020
 ---------------------------------------------------------------------
                    Distance matrix (angstroms):
                    1          2          3          4          5
     1  Al   0.000000
     2  O    1.699962   0.000000
     3  O    1.704724   2.914569   0.000000
     4  O    1.704724   2.914569   3.015680   0.000000
     5  H    2.391081   0.962095   3.505317   3.505317   0.000000
     6  H    2.370469   3.803359   0.963867   3.246093   4.407334
     7  H    2.370469   3.803359   3.246093   0.963867   4.407334
                    6          7
     6  H    0.000000
     7  H    3.186040   0.000000
 Stoichiometry    AlH3O3
 Framework group  CS[SG(AlHO),X(H2O2)]
 Deg. of freedom     9
 Full point group                 CS      NOp   2
 Largest Abelian subgroup         CS      NOp   2
 Largest concise Abelian subgroup CS      NOp   2
                         Standard orientation:                         
 ---------------------------------------------------------------------
 Center     Atomic      Atomic             Coordinates (Angstroms)
 Number     Number       Type             X           Y           Z
 ---------------------------------------------------------------------
      1         13           0       -0.005451   -0.008741    0.000000
      2          8           0        0.028129   -1.708371    0.000000
      3          8           0        0.028130    0.785849    1.507840
      4          8           0        0.028130    0.785849   -1.507840
      5          1           0       -0.743451   -2.283081    0.000000
      6          1           0        0.069600    1.745049    1.593020
      7          1           0        0.069600    1.745049   -1.593020
 ---------------------------------------------------------------------
 Rotational constants (GHZ):           6.4461002           6.4450888           3.2457353
 Leave Link  202 at Wed Jun 24 01:17:41 2026, MaxMem=  1879048192 cpu:               0.0 elap:               0.0
 (Enter /CH/g16/l301.exe)
 Standard basis: def2TZVP (5D, 7F)
 Ernie: Thresh=  0.10000D-02 Tol=  0.10000D-05 Strict=F.
 There are   101 symmetry adapted cartesian basis functions of A'  symmetry.
 There are    67 symmetry adapted cartesian basis functions of A"  symmetry.
 There are    88 symmetry adapted basis functions of A'  symmetry.
 There are    60 symmetry adapted basis functions of A"  symmetry.
   148 basis functions,   246 primitive gaussians,   168 cartesian basis functions
    20 alpha electrons       20 beta electrons
       nuclear repulsion energy       160.9331519611 Hartrees.
 IExCor=  402 DFT=T Ex+Corr=B3LYP ExCW=0 ScaHFX=  0.200000
 ScaDFX=  0.800000  0.720000  1.000000  0.810000 ScalE2=  1.000000  1.000000
 IRadAn=      5 IRanWt=     -1 IRanGd=            0 ICorTp=0 IEmpDi=141
 NAtoms=    7 NActive=    7 NUniq=    5 SFac= 1.96D+00 NAtFMM=   60 NAOKFM=F Big=F
 Integral buffers will be    131072 words long.
 Raffenetti 2 integral format.
 Two-electron integral symmetry is turned on.
 R6Disp:  Grimme-D3(BJ) Dispersion energy=       -0.0058926508 Hartrees.
 Nuclear repulsion after empirical dispersion term =      160.9272593103 Hartrees.
 ------------------------------------------------------------------------------
 Polarizable Continuum Model (PCM)
 =================================
 Model                : PCM.
 Atomic radii         : SMD-Coulomb.
 Polarization charges : Total charges.
 Charge compensation  : None.
 Solution method      : On-the-fly selection.
 Cavity type          : VdW (van der Waals Surface) (Alpha=1.000).
 Cavity algorithm     : GePol (No added spheres)
                        Default sphere list used, NSphG=    7.
                        Lebedev-Laikov grids with approx.  5.0 points / Ang**2.
                        Smoothing algorithm: York/Karplus (Gamma=1.0000).
                        Polarization charges: spherical gaussians, with
                                              point-specific exponents (IZeta= 3).
                        Self-potential: point-specific (ISelfS= 7).
                        Self-field    : sphere-specific E.n sum rule (ISelfD= 2).
 Solvent              : TetraHydroFuran, Eps=   7.425700 Eps(inf)=   1.974025
 ------------------------------------------------------------------------------
 Spheres list:
 ISph  on   Nord     Re0    Alpha      Xe            Ye            Ze
    1  Al      1    2.3000  1.000     -0.005451     -0.008741      0.000000
    2   O      2    2.2940  1.000      0.028129     -1.708371      0.000000
    3   O      3    2.2940  1.000      0.028130      0.785849      1.507840
    4   O      4    2.2940  1.000      0.028130      0.785849     -1.507840
    5   H      5    1.2000  1.000     -0.743451     -2.283081      0.000000
    6   H      6    1.2000  1.000      0.069600      1.745049      1.593020
    7   H      7    1.2000  1.000      0.069600      1.745049     -1.593020
 ------------------------------------------------------------------------------
 GePol: Number of generator spheres                  =       7
 GePol: Total number of spheres                      =       7
 GePol: Number of exposed spheres                    =       4 ( 57.14%)
 GePol: Number of points                             =     981
 GePol: Average weight of points                     =       0.14
 GePol: Minimum weight of points                     =   0.56D-03
 GePol: Maximum weight of points                     =    0.16851
 GePol: Number of points with low weight             =       5
 GePol: Fraction of low-weight points (<1% of avg)   =       0.51%
 GePol: Cavity surface area                          =    137.540 Ang**2
 GePol: Cavity volume                                =    130.586 Ang**3
 ------------------------------------------------------------------------------
 Atomic radii for non-electrostatic terms: SMD-CDS.
 ------------------------------------------------------------------------------
 PCM non-electrostatic energy =        -0.0012759153 Hartrees.
 Nuclear repulsion after PCM non-electrostatic terms =      160.9259833951 Hartrees.
 Leave Link  301 at Wed Jun 24 01:17:41 2026, MaxMem=  1879048192 cpu:               0.0 elap:               0.0
 (Enter /CH/g16/l302.exe)
 NPDir=0 NMtPBC=     1 NCelOv=     1 NCel=       1 NClECP=     1 NCelD=      1
         NCelK=      1 NCelE2=     1 NClLst=     1 CellRange=     0.0.
 One-electron integrals computed using PRISM.
 One-electron integral symmetry used in STVInt
   2 Symmetry operations used in ECPInt.
 ECPInt:  NShTT=    1711 NPrTT=    5676 LenC2=    1691 LenP2D=    4617.
 LDataN:  DoStor=T MaxTD1= 6 Len=  172
 NBasis=   148 RedAO= T EigKep=  4.26D-03  NBF=    88    60
 NBsUse=   148 1.00D-06 EigRej= -1.00D+00 NBFU=    88    60
 Precomputing XC quadrature grid using
 IXCGrd= 4 IRadAn=           5 IRanWt=          -1 IRanGd=           0 AccXCQ= 0.00D+00.
 Generated NRdTot=       0 NPtTot=           0 NUsed=           0 NTot=          32
 NSgBfM=   167   167   167   167   167 MxSgAt=     7 MxSgA2=     7.
 Leave Link  302 at Wed Jun 24 01:17:41 2026, MaxMem=  1879048192 cpu:               0.4 elap:               0.1
 (Enter /CH/g16/l303.exe)
 DipDrv:  MaxL=1.
 Leave Link  303 at Wed Jun 24 01:17:41 2026, MaxMem=  1879048192 cpu:               0.0 elap:               0.0
 (Enter /CH/g16/l401.exe)
 ExpMin= 5.79D-02 ExpMax= 3.78D+04 ExpMxC= 1.29D+03 IAcc=3 IRadAn=         5 AccDes= 0.00D+00
 Harris functional with IExCor=  402 and IRadAn=       5 diagonalized for initial guess.
 HarFok:  IExCor=  402 AccDes= 0.00D+00 IRadAn=         5 IDoV= 1 UseB2=F ITyADJ=14
 ICtDFT=  3500011 ScaDFX=  1.000000  1.000000  1.000000  1.000000
 FoFCou: FMM=F IPFlag=           0 FMFlag=      100000 FMFlg1=           0
         NFxFlg=           0 DoJE=T BraDBF=F KetDBF=T FulRan=T
         wScrn=  0.000000 ICntrl=       500 IOpCl=  0 I1Cent=   200000004 NGrid=           0
         NMat0=    1 NMatS0=      1 NMatT0=    0 NMatD0=    1 NMtDS0=    0 NMtDT0=    0
 Petite list used in FoFCou.
 Harris En= -470.338298179097    
 JPrj=0 DoOrth=F DoCkMO=F.
 Initial guess orbital symmetries:
       Occupied  (A') (A') (A') (A") (A') (A") (A') (A') (A') (A')
                 (A") (A') (A") (A') (A') (A') (A") (A') (A") (A")
       Virtual   (A') (A') (A') (A") (A') (A") (A') (A') (A') (A')
                 (A") (A") (A') (A') (A') (A') (A") (A') (A") (A')
                 (A") (A") (A') (A") (A') (A') (A") (A') (A") (A')
                 (A') (A") (A') (A') (A') (A") (A") (A') (A') (A")
                 (A') (A") (A') (A") (A") (A') (A') (A") (A') (A')
                 (A') (A") (A') (A') (A") (A") (A") (A') (A') (A")
                 (A") (A') (A') (A") (A') (A') (A") (A') (A") (A')
                 (A') (A") (A') (A') (A") (A') (A") (A') (A") (A')
                 (A') (A") (A') (A") (A') (A') (A") (A") (A') (A")
                 (A') (A") (A') (A") (A') (A') (A") (A") (A') (A")
                 (A') (A") (A') (A') (A") (A') (A") (A') (A") (A')
                 (A") (A') (A") (A') (A') (A") (A') (A") (A') (A')
                 (A") (A') (A') (A') (A") (A') (A") (A')
 The electronic state of the initial guess is 1-A'.
 Leave Link  401 at Wed Jun 24 01:17:41 2026, MaxMem=  1879048192 cpu:               0.9 elap:               0.1
 (Enter /CH/g16/l502.exe)
 Keep R1 ints in memory in symmetry-blocked form, NReq=91269867.
 FoFCou: FMM=F IPFlag=           0 FMFlag=           0 FMFlg1=           0
         NFxFlg=           0 DoJE=F BraDBF=F KetDBF=F FulRan=T
         wScrn=  0.000000 ICntrl=       600 IOpCl=  0 I1Cent=           0 NGrid=           0
         NMat0=    1 NMatS0=  11026 NMatT0=    0 NMatD0=    1 NMtDS0=    0 NMtDT0=    0
 Petite list used in FoFCou.
 Closed shell SCF:
 Using DIIS extrapolation, IDIIS=  1040.
 NGot=  1879048192 LenX=  1848511775 LenY=  1848483110
 Requested convergence on RMS density matrix=1.00D-08 within 128 cycles.
 Requested convergence on MAX density matrix=1.00D-06.
 Requested convergence on             energy=1.00D-06.
 No special actions if energy rises.

 Cycle   1  Pass 1  IDiag  1:
 Inv3:  Mode=1 IEnd=     2887083.
 Iteration    1 A*A^-1 deviation from unit magnitude is 3.33D-15 for    311.
 Iteration    1 A*A^-1 deviation from orthogonality  is 1.67D-15 for    844    230.
 Iteration    1 A^-1*A deviation from unit magnitude is 3.11D-15 for    311.
 Iteration    1 A^-1*A deviation from orthogonality  is 2.22D-15 for    777    472.
 E= -469.892267673987    
 DIIS: error= 6.22D-02 at cycle   1 NSaved=   1.
 NSaved= 1 IEnMin= 1 EnMin= -469.892267673987     IErMin= 1 ErrMin= 6.22D-02
 ErrMax= 6.22D-02  0.00D+00 EMaxC= 1.00D-01 BMatC= 5.09D-01 BMatP= 5.09D-01
 IDIUse=3 WtCom= 3.78D-01 WtEn= 6.22D-01
 Coeff-Com:  0.100D+01
 Coeff-En:   0.100D+01
 Coeff:      0.100D+01
 Gap=     0.118 Goal=   None    Shift=    0.000
 GapD=    0.118 DampG=1.000 DampE=0.500 DampFc=0.5000 IDamp=-1.
 Damping current iteration by 5.00D-01
 RMSDP=6.17D-03 MaxDP=1.55D-01              OVMax= 3.75D-01

 Cycle   2  Pass 1  IDiag  1:
 E= -469.928616284010     Delta-E=       -0.036348610023 Rises=F Damp=T
 DIIS: error= 2.43D-02 at cycle   2 NSaved=   2.
 NSaved= 2 IEnMin= 2 EnMin= -469.928616284010     IErMin= 2 ErrMin= 2.43D-02
 ErrMax= 2.43D-02  0.00D+00 EMaxC= 1.00D-01 BMatC= 7.80D-02 BMatP= 5.09D-01
 IDIUse=3 WtCom= 7.57D-01 WtEn= 2.43D-01
 Coeff-Com:  0.272D+00 0.728D+00
 Coeff-En:   0.458D+00 0.542D+00
 Coeff:      0.317D+00 0.683D+00
 Gap=     0.273 Goal=   None    Shift=    0.000
 RMSDP=1.15D-03 MaxDP=3.04D-02 DE=-3.63D-02 OVMax= 2.32D-01

 Cycle   3  Pass 1  IDiag  1:
 E= -470.232062287994     Delta-E=       -0.303446003984 Rises=F Damp=F
 DIIS: error= 2.82D-03 at cycle   3 NSaved=   3.
 NSaved= 3 IEnMin= 3 EnMin= -470.232062287994     IErMin= 3 ErrMin= 2.82D-03
 ErrMax= 2.82D-03  0.00D+00 EMaxC= 1.00D-01 BMatC= 1.53D-03 BMatP= 7.80D-02
 IDIUse=3 WtCom= 9.72D-01 WtEn= 2.82D-02
 Coeff-Com:  0.592D-01 0.481D-01 0.893D+00
 Coeff-En:   0.000D+00 0.000D+00 0.100D+01
 Coeff:      0.575D-01 0.468D-01 0.896D+00
 Gap=     0.288 Goal=   None    Shift=    0.000
 RMSDP=1.24D-04 MaxDP=2.72D-03 DE=-3.03D-01 OVMax= 4.84D-03

 Cycle   4  Pass 1  IDiag  1:
 E= -470.232720478482     Delta-E=       -0.000658190488 Rises=F Damp=F
 DIIS: error= 9.07D-04 at cycle   4 NSaved=   4.
 NSaved= 4 IEnMin= 4 EnMin= -470.232720478482     IErMin= 4 ErrMin= 9.07D-04
 ErrMax= 9.07D-04  0.00D+00 EMaxC= 1.00D-01 BMatC= 1.22D-04 BMatP= 1.53D-03
 IDIUse=3 WtCom= 9.91D-01 WtEn= 9.07D-03
 Coeff-Com:  0.140D-01-0.949D-02 0.304D+00 0.692D+00
 Coeff-En:   0.000D+00 0.000D+00 0.000D+00 0.100D+01
 Coeff:      0.139D-01-0.941D-02 0.301D+00 0.694D+00
 Gap=     0.289 Goal=   None    Shift=    0.000
 RMSDP=5.46D-05 MaxDP=1.93D-03 DE=-6.58D-04 OVMax= 2.99D-03

 Cycle   5  Pass 1  IDiag  1:
 E= -470.232761471635     Delta-E=       -0.000040993153 Rises=F Damp=F
 DIIS: error= 7.75D-04 at cycle   5 NSaved=   5.
 NSaved= 5 IEnMin= 5 EnMin= -470.232761471635     IErMin= 5 ErrMin= 7.75D-04
 ErrMax= 7.75D-04  0.00D+00 EMaxC= 1.00D-01 BMatC= 5.76D-05 BMatP= 1.22D-04
 IDIUse=3 WtCom= 9.92D-01 WtEn= 7.75D-03
 Coeff-Com:  0.611D-02-0.103D-01 0.132D+00 0.436D+00 0.437D+00
 Coeff-En:   0.000D+00 0.000D+00 0.000D+00 0.308D+00 0.692D+00
 Coeff:      0.606D-02-0.102D-01 0.131D+00 0.435D+00 0.438D+00
 Gap=     0.288 Goal=   None    Shift=    0.000
 RMSDP=2.26D-05 MaxDP=6.07D-04 DE=-4.10D-05 OVMax= 1.60D-03

 Cycle   6  Pass 1  IDiag  1:
 E= -470.232798944287     Delta-E=       -0.000037472652 Rises=F Damp=F
 DIIS: error= 1.22D-04 at cycle   6 NSaved=   6.
 NSaved= 6 IEnMin= 6 EnMin= -470.232798944287     IErMin= 6 ErrMin= 1.22D-04
 ErrMax= 1.22D-04  0.00D+00 EMaxC= 1.00D-01 BMatC= 2.24D-06 BMatP= 5.76D-05
 IDIUse=3 WtCom= 9.99D-01 WtEn= 1.22D-03
 Coeff-Com:  0.194D-02-0.295D-02 0.166D-01 0.684D-01 0.136D+00 0.780D+00
 Coeff-En:   0.000D+00 0.000D+00 0.000D+00 0.000D+00 0.000D+00 0.100D+01
 Coeff:      0.193D-02-0.294D-02 0.166D-01 0.683D-01 0.136D+00 0.780D+00
 Gap=     0.288 Goal=   None    Shift=    0.000
 RMSDP=5.88D-06 MaxDP=1.49D-04 DE=-3.75D-05 OVMax= 2.94D-04

 Cycle   7  Pass 1  IDiag  1:
 E= -470.232800591047     Delta-E=       -0.000001646759 Rises=F Damp=F
 DIIS: error= 1.31D-05 at cycle   7 NSaved=   7.
 NSaved= 7 IEnMin= 7 EnMin= -470.232800591047     IErMin= 7 ErrMin= 1.31D-05
 ErrMax= 1.31D-05  0.00D+00 EMaxC= 1.00D-01 BMatC= 4.00D-08 BMatP= 2.24D-06
 IDIUse=1 WtCom= 1.00D+00 WtEn= 0.00D+00
 Coeff-Com:  0.617D-03-0.928D-03 0.381D-02 0.157D-01 0.349D-01 0.242D+00
 Coeff-Com:  0.704D+00
 Coeff:      0.617D-03-0.928D-03 0.381D-02 0.157D-01 0.349D-01 0.242D+00
 Coeff:      0.704D+00
 Gap=     0.288 Goal=   None    Shift=    0.000
 RMSDP=9.44D-07 MaxDP=6.29D-05 DE=-1.65D-06 OVMax= 3.80D-05

 Cycle   8  Pass 1  IDiag  1:
 E= -470.232800617494     Delta-E=       -0.000000026447 Rises=F Damp=F
 DIIS: error= 2.96D-06 at cycle   8 NSaved=   8.
 NSaved= 8 IEnMin= 8 EnMin= -470.232800617494     IErMin= 8 ErrMin= 2.96D-06
 ErrMax= 2.96D-06  0.00D+00 EMaxC= 1.00D-01 BMatC= 1.36D-09 BMatP= 4.00D-08
 IDIUse=1 WtCom= 1.00D+00 WtEn= 0.00D+00
 Coeff-Com:  0.270D-04-0.572D-04 0.339D-03-0.106D-03-0.181D-02-0.104D-01
 Coeff-Com:  0.107D+00 0.905D+00
 Coeff:      0.270D-04-0.572D-04 0.339D-03-0.106D-03-0.181D-02-0.104D-01
 Coeff:      0.107D+00 0.905D+00
 Gap=     0.288 Goal=   None    Shift=    0.000
 RMSDP=1.42D-07 MaxDP=2.84D-06 DE=-2.64D-08 OVMax= 5.43D-06

 Cycle   9  Pass 1  IDiag  1:
 E= -470.232800618419     Delta-E=       -0.000000000925 Rises=F Damp=F
 DIIS: error= 2.02D-07 at cycle   9 NSaved=   9.
 NSaved= 9 IEnMin= 9 EnMin= -470.232800618419     IErMin= 9 ErrMin= 2.02D-07
 ErrMax= 2.02D-07  0.00D+00 EMaxC= 1.00D-01 BMatC= 6.08D-12 BMatP= 1.36D-09
 IDIUse=1 WtCom= 1.00D+00 WtEn= 0.00D+00
 Coeff-Com:  0.117D-06-0.271D-05 0.252D-04-0.536D-04-0.346D-03-0.298D-02
 Coeff-Com:  0.738D-02 0.639D-01 0.932D+00
 Coeff:      0.117D-06-0.271D-05 0.252D-04-0.536D-04-0.346D-03-0.298D-02
 Coeff:      0.738D-02 0.639D-01 0.932D+00
 Gap=     0.288 Goal=   None    Shift=    0.000
 RMSDP=1.32D-08 MaxDP=3.31D-07 DE=-9.25D-10 OVMax= 5.30D-07

 Cycle  10  Pass 1  IDiag  1:
 E= -470.232800618424     Delta-E=       -0.000000000005 Rises=F Damp=F
 DIIS: error= 1.88D-08 at cycle  10 NSaved=  10.
 NSaved=10 IEnMin=10 EnMin= -470.232800618424     IErMin=10 ErrMin= 1.88D-08
 ErrMax= 1.88D-08  0.00D+00 EMaxC= 1.00D-01 BMatC= 6.29D-14 BMatP= 6.08D-12
 IDIUse=1 WtCom= 1.00D+00 WtEn= 0.00D+00
 Coeff-Com: -0.567D-06 0.787D-06-0.300D-05-0.849D-05-0.317D-04-0.372D-03
 Coeff-Com: -0.113D-02-0.798D-02 0.163D+00 0.846D+00
 Coeff:     -0.567D-06 0.787D-06-0.300D-05-0.849D-05-0.317D-04-0.372D-03
 Coeff:     -0.113D-02-0.798D-02 0.163D+00 0.846D+00
 Gap=     0.288 Goal=   None    Shift=    0.000
 RMSDP=1.31D-09 MaxDP=2.49D-08 DE=-5.46D-12 OVMax= 6.43D-08

 Error on total polarization charges =  0.00339
 SCF Done:  E(RB3LYP) =  -470.232800618     A.U. after   10 cycles
            NFock= 10  Conv=0.13D-08     -V/T= 2.0033
 KE= 4.686737015770D+02 PE=-1.440572863614D+03 EE= 3.407403780235D+02
 SMD-CDS (non-electrostatic) energy       (kcal/mol) =      -0.80
 (included in total energy above)
 Leave Link  502 at Wed Jun 24 01:17:44 2026, MaxMem=  1879048192 cpu:              17.6 elap:               2.6
 (Enter /CH/g16/l601.exe)
 Copying SCF densities to generalized density rwf, IOpCl= 0 IROHF=0.

 **********************************************************************

            Population analysis using the SCF Density.

 **********************************************************************

 Orbital symmetries:
       Occupied  (A') (A") (A') (A') (A') (A') (A") (A') (A') (A")
                 (A') (A') (A") (A') (A') (A') (A') (A") (A") (A")
       Virtual   (A') (A') (A') (A") (A') (A") (A') (A') (A') (A')
                 (A") (A') (A") (A') (A') (A') (A") (A') (A") (A")
                 (A') (A") (A') (A") (A') (A') (A") (A') (A") (A')
                 (A') (A") (A') (A') (A') (A") (A") (A') (A') (A")
                 (A') (A") (A') (A") (A") (A') (A') (A") (A') (A')
                 (A') (A") (A') (A") (A') (A") (A') (A") (A') (A")
                 (A') (A") (A') (A") (A') (A') (A") (A') (A") (A')
                 (A') (A') (A") (A') (A") (A') (A") (A') (A") (A')
                 (A') (A") (A') (A") (A') (A') (A") (A") (A') (A")
                 (A') (A") (A') (A') (A") (A') (A") (A") (A') (A")
                 (A') (A") (A') (A') (A") (A') (A") (A') (A") (A')
                 (A") (A') (A") (A') (A') (A") (A') (A") (A') (A')
                 (A") (A') (A') (A') (A") (A') (A") (A')
 The electronic state is 1-A'.
 Alpha  occ. eigenvalues --  -56.01711 -19.10906 -19.10906 -19.10395  -4.12559
 Alpha  occ. eigenvalues --   -2.68343  -2.67646  -2.67595  -0.97583  -0.96436
 Alpha  occ. eigenvalues --   -0.96241  -0.51947  -0.48594  -0.47568  -0.36666
 Alpha  occ. eigenvalues --   -0.34573  -0.32711  -0.32515  -0.31612  -0.31370
 Alpha virt. eigenvalues --   -0.02596   0.02836   0.04466   0.06186   0.09586
 Alpha virt. eigenvalues --    0.12648   0.14131   0.19417   0.21632   0.22903
 Alpha virt. eigenvalues --    0.24953   0.26626   0.26703   0.31536   0.34331
 Alpha virt. eigenvalues --    0.41925   0.43101   0.48525   0.48868   0.50953
 Alpha virt. eigenvalues --    0.51451   0.51515   0.54479   0.56275   0.60176
 Alpha virt. eigenvalues --    0.64212   0.67640   0.69086   0.72686   0.73008
 Alpha virt. eigenvalues --    0.74977   0.76798   0.77790   0.79460   0.82768
 Alpha virt. eigenvalues --    0.84424   0.85380   0.87081   0.90375   0.99590
 Alpha virt. eigenvalues --    1.08506   1.12369   1.20671   1.28824   1.42162
 Alpha virt. eigenvalues --    1.42860   1.56896   1.57452   1.57517   1.69005
 Alpha virt. eigenvalues --    1.70936   1.73296   1.76378   1.89574   1.89636
 Alpha virt. eigenvalues --    1.92397   1.96777   1.99972   2.01032   2.07436
 Alpha virt. eigenvalues --    2.10143   2.11429   2.21358   2.23716   2.25174
 Alpha virt. eigenvalues --    2.34626   2.37365   2.40263   2.45837   2.49890
 Alpha virt. eigenvalues --    2.65229   2.67936   2.69175   2.71049   2.76586
 Alpha virt. eigenvalues --    2.82462   2.82937   2.90583   3.16904   3.23744
 Alpha virt. eigenvalues --    3.39469   3.40411   3.75125   3.81113   3.84218
 Alpha virt. eigenvalues --    5.11592   5.11853   5.12741   5.14080   5.14173
 Alpha virt. eigenvalues --    5.15379   5.16853   5.17314   5.17797   5.18123
 Alpha virt. eigenvalues --    5.20624   5.22400   5.39456   5.43721   5.44068
 Alpha virt. eigenvalues --    5.44604   5.47185   5.47495   6.18986   6.21999
 Alpha virt. eigenvalues --    6.23993   6.29894   6.36071   6.40084   6.44885
 Alpha virt. eigenvalues --    6.47051   6.51698   6.53024   6.55854   6.67937
 Alpha virt. eigenvalues --    6.71608   6.75601   6.76487   6.97506   7.02167
 Alpha virt. eigenvalues --    7.10574   8.05095   9.18057   9.72195   9.72497
 Alpha virt. eigenvalues --   43.36949  43.40366  43.44468
          Condensed to atoms (all electrons):
               1          2          3          4          5          6
     1  Al  10.961007   0.446817   0.455891   0.455891  -0.033882  -0.034064
     2  O    0.446817   7.883237  -0.011878  -0.011878   0.304738   0.000733
     3  O    0.455891  -0.011878   7.852213  -0.016608   0.000394   0.301011
     4  O    0.455891  -0.011878  -0.016608   7.852213   0.000394  -0.000712
     5  H   -0.033882   0.304738   0.000394   0.000394   0.396457  -0.000061
     6  H   -0.034064   0.000733   0.301011  -0.000712  -0.000061   0.404301
     7  H   -0.034064   0.000733  -0.000712   0.301011  -0.000061  -0.000559
               7
     1  Al  -0.034064
     2  O    0.000733
     3  O   -0.000712
     4  O    0.301011
     5  H   -0.000061
     6  H   -0.000559
     7  H    0.404301
 Mulliken charges:
               1
     1  Al   0.782404
     2  O   -0.612503
     3  O   -0.580311
     4  O   -0.580311
     5  H    0.332020
     6  H    0.329351
     7  H    0.329351
 Sum of Mulliken charges =  -0.00000
 Mulliken charges with hydrogens summed into heavy atoms:
               1
     1  Al   0.782404
     2  O   -0.280482
     3  O   -0.250961
     4  O   -0.250961
 Electronic spatial extent (au):  <R**2>=            370.7580
 Charge=             -0.0000 electrons
 Dipole moment (field-independent basis, Debye):
    X=             -1.3870    Y=              2.5343    Z=              0.0000  Tot=              2.8890
 Quadrupole moment (field-independent basis, Debye-Ang):
   XX=            -25.8952   YY=            -21.1541   ZZ=            -35.8312
   XY=              4.0103   XZ=             -0.0000   YZ=             -0.0000
 Traceless Quadrupole moment (field-independent basis, Debye-Ang):
   XX=              1.7316   YY=              6.4728   ZZ=             -8.2044
   XY=              4.0103   XZ=             -0.0000   YZ=             -0.0000
 Octapole moment (field-independent basis, Debye-Ang**2):
  XXX=             -1.4732  YYY=             14.8150  ZZZ=              0.0000  XYY=             -8.3594
  XXY=             -3.0376  XXZ=             -0.0000  XZZ=              0.0421  YZZ=              5.3381
  YYZ=             -0.0000  XYZ=             -0.0000
 Hexadecapole moment (field-independent basis, Debye-Ang**3):
 XXXX=            -27.5065 YYYY=           -150.4153 ZZZZ=           -231.3233 XXXY=             -0.1827
 XXXZ=              0.0000 YYYX=             20.5343 YYYZ=              0.0000 ZZZX=              0.0000
 ZZZY=             -0.0000 XXYY=            -34.6508 XXZZ=            -42.3513 YYZZ=            -49.2572
 XXYZ=             -0.0000 YYXZ=             -0.0000 ZZXY=              0.3728
 N-N= 1.609259833951D+02 E-N=-1.440572865502D+03  KE= 4.686737015770D+02
 Symmetry A'   KE= 3.675260912010D+02
 Symmetry A"   KE= 1.011476103760D+02
 No NMR shielding tensors so no spin-rotation constants.
 Leave Link  601 at Wed Jun 24 01:17:44 2026, MaxMem=  1879048192 cpu:               0.4 elap:               0.1
 (Enter /CH/g16/l9999.exe)
 Unable to Open any file for archive entry.
 1\1\GINC-NODE0-CHCLUSTER\SP\RB3LYP\def2TZVP\Al1H3O3\LS\24-Jun-2026\0\\
 #p B3LYP/def2TZVP EmpiricalDispersion=GD3BJ SCRF=(SMD,Solvent=Tetrahyd
 rofuran) int=ultrafine\\AlOH3_tz\\0,1\Al,0,0.00545,0.00874,0.\O,0,-0.0
 2813,1.70837,0.\O,0,-0.02813,-0.78585,1.50784\O,0,-0.02813,-0.78585,-1
 .50784\H,0,0.74345,2.28308,0.\H,0,-0.0696,-1.74505,1.59302\H,0,-0.0696
 ,-1.74505,-1.59302\\Version=ES64L-G16RevC.02\State=1-A'\HF=-470.232800
 6\RMSD=1.312e-09\Dipole=0.5457001,-0.997052,0.\Quadrupole=1.2874049,4.
 8123358,-6.0997407,2.9815646,0.,0.\PG=CS [SG(Al1H1O1),X(H2O2)]\\@
 The archive entry for this job was punched.


 WE HAVE LEARNED THAT NOTHING IS SIMPLE AND
 RATIONAL EXCEPT WHAT WE OURSELVES HAVE INVENTED;
 THAT GOD THINKS IN TERMS NEITHER OF EUCLID OR RIEMANN; THAT SCIENCE HAS "EXPLAINED" NOTHING;
 THAT THE MORE WE KNOW THE MORE FANTASTIC THE WORLD BECOMES
 AND THE PROFOUNDER THE SURROUNDING DARKNESS.
   --  ALDOUS HUXLEY
 Job cpu time:       0 days  0 hours  0 minutes 23.5 seconds.
 Elapsed time:       0 days  0 hours  0 minutes  3.3 seconds.
 File lengths (MBytes):  RWF=     27 Int=      0 D2E=      0 Chk=      3 Scr=      1
 Normal termination of Gaussian 16 at Wed Jun 24 01:17:44 2026.
