 Entering Gaussian System, Link 0=/CH/g16/g16
 Initial command:
 /CH/g16/l1.exe "/tmp/g16cpx_AlOH3_2907238/Gau-2907251.inp" -scrdir="/tmp/g16cpx_AlOH3_2907238/"
 Default is to use a total of  96 processors:
                               96 via shared-memory
                                1 via Linda
 Entering Link 1 = /CH/g16/l1.exe PID=   2907255.
  
 Copyright (c) 1988-2021, Gaussian, Inc.  All Rights Reserved.
  
 This is part of the Gaussian(R) 16 program.  It is based on
 the Gaussian(R) 09 system (copyright 2009, Gaussian, Inc.),
 the Gaussian(R) 03 system (copyright 2003, Gaussian, Inc.),
 the Gaussian(R) 98 system (copyright 1998, Gaussian, Inc.),
 the Gaussian(R) 94 system (copyright 1995, Gaussian, Inc.),
 the Gaussian 92(TM) system (copyright 1992, Gaussian, Inc.),
 the Gaussian 90(TM) system (copyright 1990, Gaussian, Inc.),
 the Gaussian 88(TM) system (copyright 1988, Gaussian, Inc.),
 the Gaussian 86(TM) system (copyright 1986, Carnegie Mellon
 University), and the Gaussian 82(TM) system (copyright 1983,
 Carnegie Mellon University). Gaussian is a federally registered
 trademark of Gaussian, Inc.
  
 This software contains proprietary and confidential information,
 including trade secrets, belonging to Gaussian, Inc.
  
 This software is provided under written license and may be
 used, copied, transmitted, or stored only in accord with that
 written license.
  
 The following legend is applicable only to US Government
 contracts under FAR:
  
                    RESTRICTED RIGHTS LEGEND
  
 Use, reproduction and disclosure by the US Government is
 subject to restrictions as set forth in subparagraphs (a)
 and (c) of the Commercial Computer Software - Restricted
 Rights clause in FAR 52.227-19.
  
 Gaussian, Inc.
 340 Quinnipiac St., Bldg. 40, Wallingford CT 06492
  
  
 ---------------------------------------------------------------
 Warning -- This program may not be used in any manner that
 competes with the business of Gaussian, Inc. or will provide
 assistance to any competitor of Gaussian, Inc.  The licensee
 of this program is prohibited from giving any competitor of
 Gaussian, Inc. access to this program.  By using this program,
 the user acknowledges that Gaussian, Inc. is engaged in the
 business of creating and licensing software in the field of
 computational chemistry and represents and warrants to the
 licensee that it is not a competitor of Gaussian, Inc. and that
 it will not use this program in any manner prohibited above.
 ---------------------------------------------------------------
  

 Cite this work as:
 Gaussian 16, Revision C.02,
 M. J. Frisch, G. W. Trucks, H. B. Schlegel, G. E. Scuseria, 
 M. A. Robb, J. R. Cheeseman, G. Scalmani, V. Barone, 
 G. A. Petersson, H. Nakatsuji, X. Li, M. Caricato, A. V. Marenich, 
 J. Bloino, B. G. Janesko, R. Gomperts, B. Mennucci, H. P. Hratchian, 
 J. V. Ortiz, A. F. Izmaylov, J. L. Sonnenberg, D. Williams-Young, 
 F. Ding, F. Lipparini, F. Egidi, J. Goings, B. Peng, A. Petrone, 
 T. Henderson, D. Ranasinghe, V. G. Zakrzewski, J. Gao, N. Rega, 
 G. Zheng, W. Liang, M. Hada, M. Ehara, K. Toyota, R. Fukuda, 
 J. Hasegawa, M. Ishida, T. Nakajima, Y. Honda, O. Kitao, H. Nakai, 
 T. Vreven, K. Throssell, J. A. Montgomery, Jr., J. E. Peralta, 
 F. Ogliaro, M. J. Bearpark, J. J. Heyd, E. N. Brothers, K. N. Kudin, 
 V. N. Staroverov, T. A. Keith, R. Kobayashi, J. Normand, 
 K. Raghavachari, A. P. Rendell, J. C. Burant, S. S. Iyengar, 
 J. Tomasi, M. Cossi, J. M. Millam, M. Klene, C. Adamo, R. Cammi, 
 J. W. Ochterski, R. L. Martin, K. Morokuma, O. Farkas, 
 J. B. Foresman, and D. J. Fox, Gaussian, Inc., Wallingford CT, 2019.
 
 ******************************************
 Gaussian 16:  ES64L-G16RevC.02  7-Dec-2021
                24-Jun-2026 
 ******************************************
 %chk=AlOH3_cpx.chk
 %nprocshared=8
 Will use up to    8 processors via shared memory.
 %mem=14GB
 ----------------------------------------------------------------------
 #p B3LYP/def2SVP EmpiricalDispersion=GD3BJ opt SCRF=(SMD,Solvent=Tetra
 hydrofuran) int=ultrafine
 ----------------------------------------------------------------------
 1/18=20,19=15,26=6,38=1/1,3;
 2/9=110,12=2,17=6,18=5,40=1/2;
 3/5=43,7=101,11=2,25=1,30=1,70=32201,71=1,72=20,74=-5,75=-5,124=41/1,2,3;
 4//1;
 5/5=2,38=5,53=20/2;
 6/7=2,8=2,9=2,10=2,28=1/1;
 7//1,2,3,16;
 1/18=20,19=15,26=6/3(2);
 2/9=110/2;
 99//99;
 2/9=110/2;
 3/5=43,7=101,11=2,25=1,30=1,70=32205,71=1,72=20,74=-5,75=-5,124=41/1,2,3;
 4/5=5,16=3,69=1/1;
 5/5=2,38=5,53=20/2;
 7//1,2,3,16;
 1/18=20,19=15,26=6/3(-5);
 2/9=110/2;
 6/7=2,8=2,9=2,10=2,19=2,28=1/1;
 99/9=1/99;
 Leave Link    1 at Wed Jun 24 01:03:22 2026, MaxMem=  1879048192 cpu:               3.6 elap:               0.1
 (Enter /CH/g16/l101.exe)
 --------------
 AlOH3+AlCl4(-)
 --------------
 Symbolic Z-matrix:
 Charge = -1 Multiplicity = 1
 Al                    0.00545   0.00874   0. 
 O                    -0.02813   1.70837   0. 
 O                    -0.02813  -0.78585   1.50784 
 O                    -0.02813  -0.78585  -1.50784 
 H                     0.74345   2.28308   0. 
 H                    -0.0696   -1.74505   1.59302 
 H                    -0.0696   -1.74505  -1.59302 
 Al                    5.66688   0.1206    0.18503 
 Cl                    3.5029    0.07784   0.11431 
 Cl                    6.40851  -1.82709   0.77338 
 Cl                    6.31291   1.60399   1.62441 
 Cl                    6.4432    0.62764  -1.77197 
 
 Add virtual bond connecting atoms Cl9        and Al1        Dist= 6.61D+00.
 Add virtual bond connecting atoms Cl9        and H5         Dist= 6.68D+00.
 ITRead=  0  0  0  0  0  0  0  0  0  0  0  0
 MicOpt= -1 -1 -1 -1 -1 -1 -1 -1 -1 -1 -1 -1
 NAtoms=     12 NQM=       12 NQMF=       0 NMMI=      0 NMMIF=      0
                NMic=       0 NMicF=      0.
                    Isotopes and Nuclear Properties:
 (Nuclear quadrupole moments (NQMom) in fm**2, nuclear magnetic moments (NMagM)
  in nuclear magnetons)

  Atom         1           2           3           4           5           6           7           8           9          10
 IAtWgt=          27          16          16          16           1           1           1          27          35          35
 AtmWgt=  26.9815413  15.9949146  15.9949146  15.9949146   1.0078250   1.0078250   1.0078250  26.9815413  34.9688527  34.9688527
 NucSpn=           5           0           0           0           1           1           1           5           3           3
 AtZEff=  -0.0000000  -0.0000000  -0.0000000  -0.0000000  -0.0000000  -0.0000000  -0.0000000  -0.0000000  -0.0000000  -0.0000000
 NQMom=   14.6600000   0.0000000   0.0000000   0.0000000   0.0000000   0.0000000   0.0000000  14.6600000  -8.1650000  -8.1650000
 NMagM=    3.6415040   0.0000000   0.0000000   0.0000000   2.7928460   2.7928460   2.7928460   3.6415040   0.8218740   0.8218740
 AtZNuc=  13.0000000   8.0000000   8.0000000   8.0000000   1.0000000   1.0000000   1.0000000  13.0000000  17.0000000  17.0000000

  Atom        11          12
 IAtWgt=          35          35
 AtmWgt=  34.9688527  34.9688527
 NucSpn=           3           3
 AtZEff=  -0.0000000  -0.0000000
 NQMom=   -8.1650000  -8.1650000
 NMagM=    0.8218740   0.8218740
 AtZNuc=  17.0000000  17.0000000
 Leave Link  101 at Wed Jun 24 01:03:22 2026, MaxMem=  1879048192 cpu:               0.4 elap:               0.4
 (Enter /CH/g16/l103.exe)

 GradGradGradGradGradGradGradGradGradGradGradGradGradGradGradGradGradGrad
 Berny optimization.
 Initialization pass.
                           ----------------------------
                           !    Initial Parameters    !
                           ! (Angstroms and Degrees)  !
 --------------------------                            --------------------------
 ! Name  Definition              Value          Derivative Info.                !
 --------------------------------------------------------------------------------
 ! R1    R(1,2)                  1.7            estimate D2E/DX2                !
 ! R2    R(1,3)                  1.7047         estimate D2E/DX2                !
 ! R3    R(1,4)                  1.7047         estimate D2E/DX2                !
 ! R4    R(1,9)                  3.5            estimate D2E/DX2                !
 ! R5    R(2,5)                  0.9621         estimate D2E/DX2                !
 ! R6    R(3,6)                  0.9639         estimate D2E/DX2                !
 ! R7    R(4,7)                  0.9639         estimate D2E/DX2                !
 ! R8    R(5,9)                  3.5342         estimate D2E/DX2                !
 ! R9    R(8,9)                  2.1656         estimate D2E/DX2                !
 ! R10   R(8,10)                 2.1656         estimate D2E/DX2                !
 ! R11   R(8,11)                 2.1656         estimate D2E/DX2                !
 ! R12   R(8,12)                 2.1656         estimate D2E/DX2                !
 ! A1    A(2,1,3)              117.751          estimate D2E/DX2                !
 ! A2    A(2,1,4)              117.751          estimate D2E/DX2                !
 ! A3    A(2,1,9)               90.0            estimate D2E/DX2                !
 ! A4    A(3,1,4)              124.3818         estimate D2E/DX2                !
 ! A5    A(3,1,9)               89.9999         estimate D2E/DX2                !
 ! A6    A(4,1,9)               93.3121         estimate D2E/DX2                !
 ! A7    A(1,2,5)              125.5487         estimate D2E/DX2                !
 ! A8    A(1,3,6)              122.8791         estimate D2E/DX2                !
 ! A9    A(1,4,7)              122.8791         estimate D2E/DX2                !
 ! A10   A(2,5,9)              104.6812         estimate D2E/DX2                !
 ! A11   A(9,8,10)             109.471          estimate D2E/DX2                !
 ! A12   A(9,8,11)             109.4713         estimate D2E/DX2                !
 ! A13   A(9,8,12)             109.4714         estimate D2E/DX2                !
 ! A14   A(10,8,11)            109.4712         estimate D2E/DX2                !
 ! A15   A(10,8,12)            109.4713         estimate D2E/DX2                !
 ! A16   A(11,8,12)            109.4712         estimate D2E/DX2                !
 ! A17   A(1,9,5)               39.7404         estimate D2E/DX2                !
 ! A18   A(5,9,8)              140.2595         estimate D2E/DX2                !
 ! A19   L(1,9,8,5,-1)         179.9998         estimate D2E/DX2                !
 ! A20   L(1,9,8,5,-2)         180.0003         estimate D2E/DX2                !
 ! D1    D(3,1,2,5)             91.8715         estimate D2E/DX2                !
 ! D2    D(4,1,2,5)            -91.8715         estimate D2E/DX2                !
 ! D3    D(9,1,2,5)              1.8716         estimate D2E/DX2                !
 ! D4    D(2,1,3,6)            175.9199         estimate D2E/DX2                !
 ! D5    D(4,1,3,6)             -0.066          estimate D2E/DX2                !
 ! D6    D(9,1,3,6)            -94.0802         estimate D2E/DX2                !
 ! D7    D(2,1,4,7)           -175.9199         estimate D2E/DX2                !
 ! D8    D(3,1,4,7)              0.066          estimate D2E/DX2                !
 ! D9    D(9,1,4,7)             92.3353         estimate D2E/DX2                !
 ! D10   D(2,1,9,5)             -0.6483         estimate D2E/DX2                !
 ! D11   D(3,1,9,5)           -118.3994         estimate D2E/DX2                !
 ! D12   D(4,1,9,5)            117.1532         estimate D2E/DX2                !
 ! D13   D(1,2,5,9)             -1.9161         estimate D2E/DX2                !
 ! D14   D(2,5,9,1)              1.1842         estimate D2E/DX2                !
 ! D15   D(2,5,9,8)           -178.816          estimate D2E/DX2                !
 ! D16   D(10,8,9,5)           164.5812         estimate D2E/DX2                !
 ! D17   D(11,8,9,5)            44.5814         estimate D2E/DX2                !
 ! D18   D(12,8,9,5)           -75.4188         estimate D2E/DX2                !
 --------------------------------------------------------------------------------
 Trust Radius=3.00D-01 FncErr=5.00D-06 GrdErr=5.00D-06 EigMax=2.50D+02 EigMin=1.00D-04
 Number of steps in this run=     60 maximum allowed number of steps=    100.
 GradGradGradGradGradGradGradGradGradGradGradGradGradGradGradGradGradGrad

 Leave Link  103 at Wed Jun 24 01:03:22 2026, MaxMem=  1879048192 cpu:               0.0 elap:               0.0
 (Enter /CH/g16/l202.exe)
                          Input orientation:                          
 ---------------------------------------------------------------------
 Center     Atomic      Atomic             Coordinates (Angstroms)
 Number     Number       Type             X           Y           Z
 ---------------------------------------------------------------------
      1         13           0        0.005450    0.008740    0.000000
      2          8           0       -0.028130    1.708370    0.000000
      3          8           0       -0.028130   -0.785850    1.507840
      4          8           0       -0.028130   -0.785850   -1.507840
      5          1           0        0.743450    2.283080    0.000000
      6          1           0       -0.069600   -1.745050    1.593020
      7          1           0       -0.069600   -1.745050   -1.593020
      8         13           0        5.666880    0.120600    0.185030
      9         17           0        3.502900    0.077840    0.114310
     10         17           0        6.408510   -1.827090    0.773380
     11         17           0        6.312910    1.603990    1.624410
     12         17           0        6.443200    0.627640   -1.771970
 ---------------------------------------------------------------------
                    Distance matrix (angstroms):
                    1          2          3          4          5
     1  Al   0.000000
     2  O    1.699962   0.000000
     3  O    1.704724   2.914569   0.000000
     4  O    1.704724   2.914569   3.015680   0.000000
     5  H    2.391081   0.962095   3.505317   3.505317   0.000000
     6  H    2.370469   3.803359   0.963867   3.246093   4.407334
     7  H    2.370469   3.803359   3.246093   0.963867   4.407334
     8  Al   5.665557   5.915098   5.916470   6.010042   5.380587
     9  Cl   3.500000   3.890998   3.893078   3.980641   3.534220
    10  Cl   6.705786   7.384303   6.561551   6.907856   7.041628
    11  Cl   6.705787   6.546632   6.777441   7.465327   5.841126
    12  Cl   6.705784   6.796026   7.391429   6.629165   6.194151
                    6          7          8          9         10
     6  H    0.000000
     7  H    3.186040   0.000000
     8  Al   6.194376   6.288825   0.000000
     9  Cl   4.274607   4.358975   2.165557   0.000000
    10  Cl   6.530272   6.897281   2.165564   3.536340   0.000000
    11  Cl   7.207877   7.893311   2.165552   3.536339   3.536340
    12  Cl   7.705153   6.933848   2.165551   3.536339   3.536341
                   11         12
    11  Cl   0.000000
    12  Cl   3.536330   0.000000
 Stoichiometry    Al2Cl4H3O3(1-)
 Framework group  C1[X(Al2Cl4H3O3)]
 Deg. of freedom    30
 Full point group                 C1      NOp   1
 Largest Abelian subgroup         C1      NOp   1
 Largest concise Abelian subgroup C1      NOp   1
                         Standard orientation:                         
 ---------------------------------------------------------------------
 Center     Atomic      Atomic             Coordinates (Angstroms)
 Number     Number       Type             X           Y           Z
 ---------------------------------------------------------------------
      1         13           0       -3.790722   -0.021596   -0.006658
      2          8           0       -3.782225   -1.720651   -0.061519
      3          8           0       -3.792293    0.820451   -1.488898
      4          8           0       -3.895566    0.722670    1.523426
      5          1           0       -2.997116   -2.276666   -0.052651
      6          1           0       -3.854538    1.780661   -1.545139
      7          1           0       -3.963645    1.677356    1.637356
      8         13           0        1.874757    0.006411    0.003248
      9         17           0       -0.290770   -0.004291   -0.000543
     10         17           0        2.587690    1.989134   -0.496956
     11         17           0        2.606200   -1.413848   -1.458761
     12         17           0        2.595910   -0.545331    1.969242
 ---------------------------------------------------------------------
 Rotational constants (GHZ):           0.8525599           0.2266795           0.2266557
 Leave Link  202 at Wed Jun 24 01:03:22 2026, MaxMem=  1879048192 cpu:               0.0 elap:               0.0
 (Enter /CH/g16/l301.exe)
 Standard basis: def2SVP (5D, 7F)
 Ernie: Thresh=  0.10000D-02 Tol=  0.10000D-05 Strict=F.
 There are   174 symmetry adapted cartesian basis functions of A   symmetry.
 There are   165 symmetry adapted basis functions of A   symmetry.
   165 basis functions,   318 primitive gaussians,   174 cartesian basis functions
    61 alpha electrons       61 beta electrons
       nuclear repulsion energy       936.3357639423 Hartrees.
 IExCor=  402 DFT=T Ex+Corr=B3LYP ExCW=0 ScaHFX=  0.200000
 ScaDFX=  0.800000  0.720000  1.000000  0.810000 ScalE2=  1.000000  1.000000
 IRadAn=      5 IRanWt=     -1 IRanGd=            0 ICorTp=0 IEmpDi=141
 NAtoms=   12 NActive=   12 NUniq=   12 SFac= 1.00D+00 NAtFMM=   60 NAOKFM=F Big=F
 Integral buffers will be    131072 words long.
 Raffenetti 2 integral format.
 Two-electron integral symmetry is turned on.
 R6Disp:  Grimme-D3(BJ) Dispersion energy=       -0.0239010871 Hartrees.
 Nuclear repulsion after empirical dispersion term =      936.3118628553 Hartrees.
 ------------------------------------------------------------------------------
 Polarizable Continuum Model (PCM)
 =================================
 Model                : PCM.
 Atomic radii         : SMD-Coulomb.
 Polarization charges : Total charges.
 Charge compensation  : None.
 Solution method      : On-the-fly selection.
 Cavity type          : VdW (van der Waals Surface) (Alpha=1.000).
 Cavity algorithm     : GePol (No added spheres)
                        Default sphere list used, NSphG=   12.
                        Lebedev-Laikov grids with approx.  5.0 points / Ang**2.
                        Smoothing algorithm: York/Karplus (Gamma=1.0000).
                        Polarization charges: spherical gaussians, with
                                              point-specific exponents (IZeta= 3).
                        Self-potential: point-specific (ISelfS= 7).
                        Self-field    : sphere-specific E.n sum rule (ISelfD= 2).
 1st derivatives      : Analytical E(r).r(x)/FMM algorithm (CHGder, D1EAlg=3).
                        Cavity 1st derivative terms included.
 Solvent              : TetraHydroFuran, Eps=   7.425700 Eps(inf)=   1.974025
 ------------------------------------------------------------------------------
 Spheres list:
 ISph  on   Nord     Re0    Alpha      Xe            Ye            Ze
    1  Al      1    2.3000  1.000     -3.790722     -0.021596     -0.006658
    2   O      2    2.2940  1.000     -3.782225     -1.720651     -0.061519
    3   O      3    2.2940  1.000     -3.792293      0.820451     -1.488898
    4   O      4    2.2940  1.000     -3.895566      0.722670      1.523426
    5   H      5    1.2000  1.000     -2.997116     -2.276666     -0.052651
    6   H      6    1.2000  1.000     -3.854538      1.780661     -1.545139
    7   H      7    1.2000  1.000     -3.963645      1.677356      1.637356
    8  Al      8    2.3000  1.000      1.874757      0.006411      0.003248
    9  Cl      9    2.3800  1.000     -0.290770     -0.004291     -0.000543
   10  Cl     10    2.3800  1.000      2.587690      1.989134     -0.496956
   11  Cl     11    2.3800  1.000      2.606200     -1.413848     -1.458761
   12  Cl     12    2.3800  1.000      2.595910     -0.545331      1.969242
 ------------------------------------------------------------------------------
 GePol: Number of generator spheres                  =      12
 GePol: Total number of spheres                      =      12
 GePol: Number of exposed spheres                    =       9 ( 75.00%)
 GePol: Number of points                             =    2073
 GePol: Average weight of points                     =       0.15
 GePol: Minimum weight of points                     =   0.33D-08
 GePol: Maximum weight of points                     =    0.18138
 GePol: Number of points with low weight             =      34
 GePol: Fraction of low-weight points (<1% of avg)   =       1.64%
 GePol: Cavity surface area                          =    306.196 Ang**2
 GePol: Cavity volume                                =    322.479 Ang**3
 ------------------------------------------------------------------------------
 Atomic radii for non-electrostatic terms: SMD-CDS.
 ------------------------------------------------------------------------------
 PCM non-electrostatic energy =        -0.0051954978 Hartrees.
 Nuclear repulsion after PCM non-electrostatic terms =      936.3066673574 Hartrees.
 Leave Link  301 at Wed Jun 24 01:03:23 2026, MaxMem=  1879048192 cpu:               0.1 elap:               0.0
 (Enter /CH/g16/l302.exe)
 NPDir=0 NMtPBC=     1 NCelOv=     1 NCel=       1 NClECP=     1 NCelD=      1
         NCelK=      1 NCelE2=     1 NClLst=     1 CellRange=     0.0.
 One-electron integrals computed using PRISM.
 One-electron integral symmetry used in STVInt
   1 Symmetry operations used in ECPInt.
 ECPInt:  NShTT=    2850 NPrTT=   12906 LenC2=    2433 LenP2D=    7290.
 LDataN:  DoStor=T MaxTD1= 4 Len=   56
 NBasis=   165 RedAO= T EigKep=  2.43D-02  NBF=   165
 NBsUse=   165 1.00D-06 EigRej= -1.00D+00 NBFU=   165
 Precomputing XC quadrature grid using
 IXCGrd= 4 IRadAn=           5 IRanWt=          -1 IRanGd=           0 AccXCQ= 0.00D+00.
 Generated NRdTot=       0 NPtTot=           0 NUsed=           0 NTot=          32
 NSgBfM=   169   169   169   169   169 MxSgAt=    12 MxSgA2=    12.
 Leave Link  302 at Wed Jun 24 01:03:23 2026, MaxMem=  1879048192 cpu:               0.4 elap:               0.1
 (Enter /CH/g16/l303.exe)
 DipDrv:  MaxL=1.
 Leave Link  303 at Wed Jun 24 01:03:23 2026, MaxMem=  1879048192 cpu:               0.0 elap:               0.0
 (Enter /CH/g16/l401.exe)
 ExpMin= 5.44D-02 ExpMax= 1.04D+04 ExpMxC= 1.57D+03 IAcc=3 IRadAn=         5 AccDes= 0.00D+00
 Harris functional with IExCor=  402 and IRadAn=       5 diagonalized for initial guess.
 HarFok:  IExCor=  402 AccDes= 0.00D+00 IRadAn=         5 IDoV= 1 UseB2=F ITyADJ=14
 ICtDFT=  3500011 ScaDFX=  1.000000  1.000000  1.000000  1.000000
 FoFCou: FMM=F IPFlag=           0 FMFlag=      100000 FMFlg1=           0
         NFxFlg=           0 DoJE=T BraDBF=F KetDBF=T FulRan=T
         wScrn=  0.000000 ICntrl=       500 IOpCl=  0 I1Cent=   200000004 NGrid=           0
         NMat0=    1 NMatS0=      1 NMatT0=    0 NMatD0=    1 NMtDS0=    0 NMtDT0=    0
 Petite list used in FoFCou.
 Harris En= -2552.74113907057    
 JPrj=0 DoOrth=F DoCkMO=F.
 Leave Link  401 at Wed Jun 24 01:03:23 2026, MaxMem=  1879048192 cpu:               1.3 elap:               0.2
 (Enter /CH/g16/l502.exe)
 Keep R1 ints in memory in canonical form, NReq=101797110.
 FoFCou: FMM=F IPFlag=           0 FMFlag=           0 FMFlg1=           0
         NFxFlg=           0 DoJE=F BraDBF=F KetDBF=F FulRan=T
         wScrn=  0.000000 ICntrl=       600 IOpCl=  0 I1Cent=           0 NGrid=           0
         NMat0=    1 NMatS0=  13695 NMatT0=    0 NMatD0=    1 NMtDS0=    0 NMtDT0=    0
 Symmetry not used in FoFCou.
 Two-electron integral symmetry not used.
 Closed shell SCF:
 Using DIIS extrapolation, IDIIS=  1040.
 NGot=  1879048192 LenX=  1785200790 LenY=  1785170073
 Requested convergence on RMS density matrix=1.00D-08 within 128 cycles.
 Requested convergence on MAX density matrix=1.00D-06.
 Requested convergence on             energy=1.00D-06.
 No special actions if energy rises.

 Cycle   1  Pass 1  IDiag  1:
 Inv3:  Mode=1 IEnd=    12891987.
 Iteration    1 A*A^-1 deviation from unit magnitude is 3.33D-15 for    754.
 Iteration    1 A*A^-1 deviation from orthogonality  is 2.33D-15 for    886    365.
 Iteration    1 A^-1*A deviation from unit magnitude is 3.77D-15 for   1269.
 Iteration    1 A^-1*A deviation from orthogonality  is 2.11D-15 for   1752    920.
 E= -2552.64708657311    
 DIIS: error= 5.97D-02 at cycle   1 NSaved=   1.
 NSaved= 1 IEnMin= 1 EnMin= -2552.64708657311     IErMin= 1 ErrMin= 5.97D-02
 ErrMax= 5.97D-02  0.00D+00 EMaxC= 1.00D-01 BMatC= 4.35D-01 BMatP= 4.35D-01
 IDIUse=3 WtCom= 4.03D-01 WtEn= 5.97D-01
 Coeff-Com:  0.100D+01
 Coeff-En:   0.100D+01
 Coeff:      0.100D+01
 Gap=     0.289 Goal=   None    Shift=    0.000
 GapD=    0.289 DampG=1.000 DampE=0.500 DampFc=0.5000 IDamp=-1.
 Damping current iteration by 5.00D-01
 RMSDP=6.91D-03 MaxDP=2.67D-01              OVMax= 3.60D-01

 Cycle   2  Pass 1  IDiag  1:
 E= -2552.72030299747     Delta-E=       -0.073216424360 Rises=F Damp=T
 DIIS: error= 1.66D-02 at cycle   2 NSaved=   2.
 NSaved= 2 IEnMin= 2 EnMin= -2552.72030299747     IErMin= 2 ErrMin= 1.66D-02
 ErrMax= 1.66D-02  0.00D+00 EMaxC= 1.00D-01 BMatC= 4.85D-02 BMatP= 4.35D-01
 IDIUse=3 WtCom= 8.34D-01 WtEn= 1.66D-01
 Coeff-Com:  0.227D+00 0.773D+00
 Coeff-En:   0.391D+00 0.609D+00
 Coeff:      0.254D+00 0.746D+00
 Gap=     0.283 Goal=   None    Shift=    0.000
 RMSDP=1.20D-03 MaxDP=6.16D-02 DE=-7.32D-02 OVMax= 1.99D-01

 Cycle   3  Pass 1  IDiag  1:
 E= -2552.96809706212     Delta-E=       -0.247794064651 Rises=F Damp=F
 DIIS: error= 2.28D-03 at cycle   3 NSaved=   3.
 NSaved= 3 IEnMin= 3 EnMin= -2552.96809706212     IErMin= 3 ErrMin= 2.28D-03
 ErrMax= 2.28D-03  0.00D+00 EMaxC= 1.00D-01 BMatC= 1.02D-03 BMatP= 4.85D-02
 IDIUse=3 WtCom= 9.77D-01 WtEn= 2.28D-02
 Coeff-Com:  0.337D-01 0.116D+00 0.850D+00
 Coeff-En:   0.000D+00 0.000D+00 0.100D+01
 Coeff:      0.330D-01 0.113D+00 0.854D+00
 Gap=     0.262 Goal=   None    Shift=    0.000
 RMSDP=3.80D-04 MaxDP=1.59D-02 DE=-2.48D-01 OVMax= 9.78D-03

 Cycle   4  Pass 1  IDiag  1:
 E= -2552.96881102248     Delta-E=       -0.000713960359 Rises=F Damp=F
 DIIS: error= 1.51D-03 at cycle   4 NSaved=   4.
 NSaved= 4 IEnMin= 4 EnMin= -2552.96881102248     IErMin= 4 ErrMin= 1.51D-03
 ErrMax= 1.51D-03  0.00D+00 EMaxC= 1.00D-01 BMatC= 3.21D-04 BMatP= 1.02D-03
 IDIUse=3 WtCom= 9.85D-01 WtEn= 1.51D-02
 Coeff-Com:  0.600D-02 0.217D-01 0.361D+00 0.611D+00
 Coeff-En:   0.000D+00 0.000D+00 0.163D+00 0.837D+00
 Coeff:      0.591D-02 0.214D-01 0.358D+00 0.615D+00
 Gap=     0.261 Goal=   None    Shift=    0.000
 RMSDP=1.54D-04 MaxDP=7.96D-03 DE=-7.14D-04 OVMax= 4.81D-03

 Cycle   5  Pass 1  IDiag  1:
 E= -2552.96911197995     Delta-E=       -0.000300957472 Rises=F Damp=F
 DIIS: error= 3.22D-04 at cycle   5 NSaved=   5.
 NSaved= 5 IEnMin= 5 EnMin= -2552.96911197995     IErMin= 5 ErrMin= 3.22D-04
 ErrMax= 3.22D-04  0.00D+00 EMaxC= 1.00D-01 BMatC= 1.51D-05 BMatP= 3.21D-04
 IDIUse=3 WtCom= 9.97D-01 WtEn= 3.22D-03
 Coeff-Com:  0.169D-02 0.537D-02 0.135D+00 0.276D+00 0.582D+00
 Coeff-En:   0.000D+00 0.000D+00 0.000D+00 0.000D+00 0.100D+01
 Coeff:      0.169D-02 0.535D-02 0.134D+00 0.275D+00 0.584D+00
 Gap=     0.261 Goal=   None    Shift=    0.000
 RMSDP=2.91D-05 MaxDP=1.87D-03 DE=-3.01D-04 OVMax= 1.09D-03

 Cycle   6  Pass 1  IDiag  1:
 E= -2552.96912739014     Delta-E=       -0.000015410189 Rises=F Damp=F
 DIIS: error= 9.92D-05 at cycle   6 NSaved=   6.
 NSaved= 6 IEnMin= 6 EnMin= -2552.96912739014     IErMin= 6 ErrMin= 9.92D-05
 ErrMax= 9.92D-05  0.00D+00 EMaxC= 1.00D-01 BMatC= 1.13D-06 BMatP= 1.51D-05
 IDIUse=1 WtCom= 1.00D+00 WtEn= 0.00D+00
 Coeff-Com:  0.317D-03 0.243D-03 0.301D-01 0.669D-01 0.260D+00 0.643D+00
 Coeff:      0.317D-03 0.243D-03 0.301D-01 0.669D-01 0.260D+00 0.643D+00
 Gap=     0.261 Goal=   None    Shift=    0.000
 RMSDP=5.94D-06 MaxDP=2.57D-04 DE=-1.54D-05 OVMax= 2.53D-04

 Cycle   7  Pass 1  IDiag  1:
 E= -2552.96912813285     Delta-E=       -0.000000742713 Rises=F Damp=F
 DIIS: error= 4.15D-05 at cycle   7 NSaved=   7.
 NSaved= 7 IEnMin= 7 EnMin= -2552.96912813285     IErMin= 7 ErrMin= 4.15D-05
 ErrMax= 4.15D-05  0.00D+00 EMaxC= 1.00D-01 BMatC= 2.40D-07 BMatP= 1.13D-06
 IDIUse=1 WtCom= 1.00D+00 WtEn= 0.00D+00
 Coeff-Com:  0.497D-04-0.482D-03 0.427D-02 0.109D-01 0.983D-01 0.387D+00
 Coeff-Com:  0.500D+00
 Coeff:      0.497D-04-0.482D-03 0.427D-02 0.109D-01 0.983D-01 0.387D+00
 Coeff:      0.500D+00
 Gap=     0.261 Goal=   None    Shift=    0.000
 RMSDP=2.45D-06 MaxDP=1.21D-04 DE=-7.43D-07 OVMax= 9.34D-05

 Cycle   8  Pass 1  IDiag  1:
 E= -2552.96912832840     Delta-E=       -0.000000195549 Rises=F Damp=F
 DIIS: error= 4.04D-06 at cycle   8 NSaved=   8.
 NSaved= 8 IEnMin= 8 EnMin= -2552.96912832840     IErMin= 8 ErrMin= 4.04D-06
 ErrMax= 4.04D-06  0.00D+00 EMaxC= 1.00D-01 BMatC= 2.77D-09 BMatP= 2.40D-07
 IDIUse=1 WtCom= 1.00D+00 WtEn= 0.00D+00
 Coeff-Com:  0.251D-04-0.174D-03-0.196D-03-0.459D-03 0.175D-01 0.886D-01
 Coeff-Com:  0.152D+00 0.742D+00
 Coeff:      0.251D-04-0.174D-03-0.196D-03-0.459D-03 0.175D-01 0.886D-01
 Coeff:      0.152D+00 0.742D+00
 Gap=     0.261 Goal=   None    Shift=    0.000
 RMSDP=4.09D-07 MaxDP=1.73D-05 DE=-1.96D-07 OVMax= 8.87D-06

 Cycle   9  Pass 1  IDiag  1:
 E= -2552.96912833080     Delta-E=       -0.000000002392 Rises=F Damp=F
 DIIS: error= 7.01D-07 at cycle   9 NSaved=   9.
 NSaved= 9 IEnMin= 9 EnMin= -2552.96912833080     IErMin= 9 ErrMin= 7.01D-07
 ErrMax= 7.01D-07  0.00D+00 EMaxC= 1.00D-01 BMatC= 1.81D-10 BMatP= 2.77D-09
 IDIUse=1 WtCom= 1.00D+00 WtEn= 0.00D+00
 Coeff-Com:  0.104D-04-0.422D-04-0.168D-03-0.503D-03 0.231D-02 0.143D-01
 Coeff-Com:  0.296D-01 0.265D+00 0.690D+00
 Coeff:      0.104D-04-0.422D-04-0.168D-03-0.503D-03 0.231D-02 0.143D-01
 Coeff:      0.296D-01 0.265D+00 0.690D+00
 Gap=     0.261 Goal=   None    Shift=    0.000
 RMSDP=1.04D-07 MaxDP=3.79D-06 DE=-2.39D-09 OVMax= 3.35D-06

 Cycle  10  Pass 1  IDiag  1:
 E= -2552.96912833092     Delta-E=       -0.000000000123 Rises=F Damp=F
 DIIS: error= 5.38D-07 at cycle  10 NSaved=  10.
 NSaved=10 IEnMin=10 EnMin= -2552.96912833092     IErMin=10 ErrMin= 5.38D-07
 ErrMax= 5.38D-07  0.00D+00 EMaxC= 1.00D-01 BMatC= 4.61D-11 BMatP= 1.81D-10
 IDIUse=1 WtCom= 1.00D+00 WtEn= 0.00D+00
 Coeff-Com:  0.405D-05-0.123D-04-0.673D-04-0.216D-03 0.213D-03 0.197D-02
 Coeff-Com:  0.557D-02 0.942D-01 0.392D+00 0.506D+00
 Coeff:      0.405D-05-0.123D-04-0.673D-04-0.216D-03 0.213D-03 0.197D-02
 Coeff:      0.557D-02 0.942D-01 0.392D+00 0.506D+00
 Gap=     0.261 Goal=   None    Shift=    0.000
 RMSDP=3.39D-08 MaxDP=1.48D-06 DE=-1.23D-10 OVMax= 1.67D-06

 Cycle  11  Pass 1  IDiag  1:
 E= -2552.96912833096     Delta-E=       -0.000000000040 Rises=F Damp=F
 DIIS: error= 1.29D-07 at cycle  11 NSaved=  11.
 NSaved=11 IEnMin=11 EnMin= -2552.96912833096     IErMin=11 ErrMin= 1.29D-07
 ErrMax= 1.29D-07  0.00D+00 EMaxC= 1.00D-01 BMatC= 3.07D-12 BMatP= 4.61D-11
 IDIUse=1 WtCom= 1.00D+00 WtEn= 0.00D+00
 Coeff-Com:  0.302D-06-0.359D-06-0.997D-05-0.308D-04-0.172D-03-0.951D-03
 Coeff-Com: -0.146D-02 0.849D-02 0.913D-01 0.243D+00 0.660D+00
 Coeff:      0.302D-06-0.359D-06-0.997D-05-0.308D-04-0.172D-03-0.951D-03
 Coeff:     -0.146D-02 0.849D-02 0.913D-01 0.243D+00 0.660D+00
 Gap=     0.261 Goal=   None    Shift=    0.000
 RMSDP=1.12D-08 MaxDP=4.50D-07 DE=-4.05D-11 OVMax= 3.62D-07

 Cycle  12  Pass 1  IDiag  1:
 E= -2552.96912833097     Delta-E=       -0.000000000007 Rises=F Damp=F
 DIIS: error= 2.68D-08 at cycle  12 NSaved=  12.
 NSaved=12 IEnMin=12 EnMin= -2552.96912833097     IErMin=12 ErrMin= 2.68D-08
 ErrMax= 2.68D-08  0.00D+00 EMaxC= 1.00D-01 BMatC= 1.67D-13 BMatP= 3.07D-12
 IDIUse=1 WtCom= 1.00D+00 WtEn= 0.00D+00
 Coeff-Com: -0.207D-06 0.796D-06-0.885D-06-0.616D-06-0.978D-04-0.579D-03
 Coeff-Com: -0.106D-02-0.260D-02 0.152D-01 0.744D-01 0.286D+00 0.629D+00
 Coeff:     -0.207D-06 0.796D-06-0.885D-06-0.616D-06-0.978D-04-0.579D-03
 Coeff:     -0.106D-02-0.260D-02 0.152D-01 0.744D-01 0.286D+00 0.629D+00
 Gap=     0.261 Goal=   None    Shift=    0.000
 RMSDP=3.34D-09 MaxDP=1.39D-07 DE=-7.28D-12 OVMax= 8.05D-08

 Error on total polarization charges =  0.00092
 SCF Done:  E(RB3LYP) =  -2552.96912833     A.U. after   12 cycles
            NFock= 12  Conv=0.33D-08     -V/T= 2.0030
 KE= 2.545425374070D+03 PE=-7.963788406733D+03 EE= 1.929087236975D+03
 SMD-CDS (non-electrostatic) energy       (kcal/mol) =      -3.26
 (included in total energy above)
 Leave Link  502 at Wed Jun 24 01:03:28 2026, MaxMem=  1879048192 cpu:              31.1 elap:               5.4
 (Enter /CH/g16/l601.exe)
 Copying SCF densities to generalized density rwf, IOpCl= 0 IROHF=0.

 **********************************************************************

            Population analysis using the SCF Density.

 **********************************************************************

 Orbital symmetries:
       Occupied  (A) (A) (A) (A) (A) (A) (A) (A) (A) (A) (A) (A)
                 (A) (A) (A) (A) (A) (A) (A) (A) (A) (A) (A) (A)
                 (A) (A) (A) (A) (A) (A) (A) (A) (A) (A) (A) (A)
                 (A) (A) (A) (A) (A) (A) (A) (A) (A) (A) (A) (A)
                 (A) (A) (A) (A) (A) (A) (A) (A) (A) (A) (A) (A)
                 (A)
       Virtual   (A) (A) (A) (A) (A) (A) (A) (A) (A) (A) (A) (A)
                 (A) (A) (A) (A) (A) (A) (A) (A) (A) (A) (A) (A)
                 (A) (A) (A) (A) (A) (A) (A) (A) (A) (A) (A) (A)
                 (A) (A) (A) (A) (A) (A) (A) (A) (A) (A) (A) (A)
                 (A) (A) (A) (A) (A) (A) (A) (A) (A) (A) (A) (A)
                 (A) (A) (A) (A) (A) (A) (A) (A) (A) (A) (A) (A)
                 (A) (A) (A) (A) (A) (A) (A) (A) (A) (A) (A) (A)
                 (A) (A) (A) (A) (A) (A) (A) (A) (A) (A) (A) (A)
                 (A) (A) (A) (A) (A) (A) (A) (A)
 The electronic state is 1-A.
 Alpha  occ. eigenvalues -- -101.44454-101.43397-101.43381-101.43375 -56.05308
 Alpha  occ. eigenvalues --  -56.01366 -19.09178 -19.09121 -19.08471  -9.39925
 Alpha  occ. eigenvalues --   -9.38899  -9.38883  -9.38878  -7.16455  -7.16020
 Alpha  occ. eigenvalues --   -7.16013  -7.15405  -7.15390  -7.15386  -7.14999
 Alpha  occ. eigenvalues --   -7.14997  -7.14983  -7.14982  -7.14978  -7.14978
 Alpha  occ. eigenvalues --   -4.14593  -4.11478  -2.70228  -2.70194  -2.70193
 Alpha  occ. eigenvalues --   -2.67469  -2.66898  -2.66854  -0.93439  -0.92306
 Alpha  occ. eigenvalues --   -0.91945  -0.77001  -0.75211  -0.74596  -0.74583
 Alpha  occ. eigenvalues --   -0.49307  -0.45972  -0.44786  -0.40220  -0.34140
 Alpha  occ. eigenvalues --   -0.33513  -0.33111  -0.33095  -0.31416  -0.29657
 Alpha  occ. eigenvalues --   -0.29526  -0.28837  -0.28731  -0.28426  -0.28229
 Alpha  occ. eigenvalues --   -0.28039  -0.28019  -0.27982  -0.26075  -0.26042
 Alpha  occ. eigenvalues --   -0.25793
 Alpha virt. eigenvalues --    0.00267   0.05032   0.08273   0.09129   0.10483
 Alpha virt. eigenvalues --    0.12008   0.12068   0.12326   0.12813   0.14867
 Alpha virt. eigenvalues --    0.18560   0.18801   0.24132   0.31473   0.31487
 Alpha virt. eigenvalues --    0.31536   0.36410   0.39969   0.40080   0.42576
 Alpha virt. eigenvalues --    0.43531   0.48578   0.50700   0.50737   0.53745
 Alpha virt. eigenvalues --    0.54159   0.64454   0.64571   0.65567   0.66553
 Alpha virt. eigenvalues --    0.67504   0.69122   0.71787   0.78094   0.80740
 Alpha virt. eigenvalues --    0.80843   0.81042   0.82347   0.82384   0.83084
 Alpha virt. eigenvalues --    0.83111   0.83243   0.83252   0.83269   0.83315
 Alpha virt. eigenvalues --    0.84478   0.86010   0.86064   0.86270   0.86482
 Alpha virt. eigenvalues --    0.87574   0.87633   0.87954   0.97461   0.97608
 Alpha virt. eigenvalues --    0.97951   0.99268   1.00605   1.00661   1.01573
 Alpha virt. eigenvalues --    1.01594   1.01652   1.02560   1.04902   1.07509
 Alpha virt. eigenvalues --    1.07586   1.11044   1.13836   1.14597   1.14768
 Alpha virt. eigenvalues --    1.16133   1.21177   1.21996   1.29623   1.33805
 Alpha virt. eigenvalues --    1.37142   1.38552   1.38601   1.40183   1.45160
 Alpha virt. eigenvalues --    1.50567   1.52071   1.55916   1.74213   1.74331
 Alpha virt. eigenvalues --    1.85025   2.25458   2.25571   2.26847   2.71789
 Alpha virt. eigenvalues --    2.72215   2.73497   2.84642   2.88372   2.89575
 Alpha virt. eigenvalues --    2.98858   2.99518   3.02000   3.07898   3.18908
 Alpha virt. eigenvalues --    3.26464   3.71138   3.72461   3.73330
          Condensed to atoms (all electrons):
               1          2          3          4          5          6
     1  Al  10.999156   0.432393   0.410946   0.411001  -0.042195  -0.032106
     2  O    0.432393   7.745807  -0.004378  -0.004388   0.328869   0.000350
     3  O    0.410946  -0.004378   7.757731  -0.006655  -0.000379   0.325791
     4  O    0.411001  -0.004388  -0.006655   7.757545  -0.000391  -0.000878
     5  H   -0.042195   0.328869  -0.000379  -0.000391   0.514450  -0.000071
     6  H   -0.032106   0.000350   0.325791  -0.000878  -0.000071   0.512631
     7  H   -0.032253   0.000352  -0.000866   0.325906  -0.000071  -0.000367
     8  Al  -0.000057   0.000003  -0.000002  -0.000010   0.000075  -0.000000
     9  Cl   0.034864  -0.000658  -0.000747  -0.000627   0.002386  -0.000278
    10  Cl   0.000022  -0.000000  -0.000000  -0.000000   0.000000   0.000000
    11  Cl   0.000044   0.000000  -0.000000  -0.000000  -0.000001  -0.000000
    12  Cl   0.000038  -0.000000  -0.000000  -0.000000  -0.000000  -0.000000
               7          8          9         10         11         12
     1  Al  -0.032253  -0.000057   0.034864   0.000022   0.000044   0.000038
     2  O    0.000352   0.000003  -0.000658  -0.000000   0.000000  -0.000000
     3  O   -0.000866  -0.000002  -0.000747  -0.000000  -0.000000  -0.000000
     4  O    0.325906  -0.000010  -0.000627  -0.000000  -0.000000  -0.000000
     5  H   -0.000071   0.000075   0.002386   0.000000  -0.000001  -0.000000
     6  H   -0.000367  -0.000000  -0.000278   0.000000  -0.000000  -0.000000
     7  H    0.512375  -0.000002  -0.000265   0.000000  -0.000000  -0.000000
     8  Al  -0.000002  11.058997   0.315434   0.335881   0.336007   0.336008
     9  Cl  -0.000265   0.315434  17.066022  -0.013967  -0.013977  -0.013995
    10  Cl   0.000000   0.335881  -0.013967  17.103290  -0.014456  -0.014467
    11  Cl  -0.000000   0.336007  -0.013977  -0.014456  17.102622  -0.014477
    12  Cl  -0.000000   0.336008  -0.013995  -0.014467  -0.014477  17.102603
 Mulliken charges:
               1
     1  Al   0.818145
     2  O   -0.498351
     3  O   -0.481440
     4  O   -0.481504
     5  H    0.197328
     6  H    0.194929
     7  H    0.195189
     8  Al   0.617667
     9  Cl  -0.374192
    10  Cl  -0.396302
    11  Cl  -0.395761
    12  Cl  -0.395709
 Sum of Mulliken charges =  -1.00000
 Mulliken charges with hydrogens summed into heavy atoms:
               1
     1  Al   0.818145
     2  O   -0.301023
     3  O   -0.286512
     4  O   -0.286314
     8  Al   0.617667
     9  Cl  -0.374192
    10  Cl  -0.396302
    11  Cl  -0.395761
    12  Cl  -0.395709
 Electronic spatial extent (au):  <R**2>=           4768.4467
 Charge=             -1.0000 electrons
 Dipole moment (field-independent basis, Debye):
    X=             -6.7190    Y=              2.6616    Z=              0.1135  Tot=              7.2278
 Quadrupole moment (field-independent basis, Debye-Ang):
   XX=           -127.4484   YY=            -94.1364   ZZ=           -108.0719
   XY=            -14.2779   XZ=             -0.3553   YZ=              0.3021
 Traceless Quadrupole moment (field-independent basis, Debye-Ang):
   XX=            -17.5628   YY=             15.7492   ZZ=              1.8137
   XY=            -14.2779   XZ=             -0.3553   YZ=              0.3021
 Octapole moment (field-independent basis, Debye-Ang**2):
  XXX=            -71.7129  YYY=              7.9359  ZZZ=             -5.3545  XYY=            -54.9281
  XXY=             66.2111  XXZ=              0.3548  XZZ=             -9.6329  YZZ=             11.2598
  YYZ=              6.0723  XYZ=             -1.1837
 Hexadecapole moment (field-independent basis, Debye-Ang**3):
 XXXX=          -4657.5967 YYYY=           -727.0197 ZZZZ=           -797.6017 XXXY=           -291.7736
 XXXZ=              1.3136 YYYX=            -94.7760 YYYZ=             -0.7589 ZZZX=            -15.7392
 ZZZY=              2.4282 XXYY=           -863.7216 XXZZ=          -1013.8381 YYZZ=           -240.1279
 XXYZ=              4.5464 YYXZ=             10.5796 ZZXY=             -7.5238
 N-N= 9.363066673574D+02 E-N=-7.963788406949D+03  KE= 2.545425374070D+03
 No NMR shielding tensors so no spin-rotation constants.
 Leave Link  601 at Wed Jun 24 01:03:28 2026, MaxMem=  1879048192 cpu:               0.4 elap:               0.1
 (Enter /CH/g16/l701.exe)
 ... and contract with generalized density number  0.
 Compute integral first derivatives.
 R6Disp: Adding Grimme-D3(BJ) dispersion energy 1st derivatives to the gradient.
   1 Symmetry operations used in ECPInt.
 ECPInt:  NShTT=    2850 NPrTT=   12906 LenC2=    2433 LenP2D=    7290.
 LDataN:  DoStor=T MaxTD1= 5 Len=  102
 D1PCM: PCM CHGder 1st derivatives, ID1Alg=3 FixD1E=F DoIter=F DoCFld=F I1PDM=0.
 GePol: Maximum number of non-zero 1st derivatives   =     343
 Leave Link  701 at Wed Jun 24 01:03:29 2026, MaxMem=  1879048192 cpu:               3.7 elap:               0.5
 (Enter /CH/g16/l702.exe)
 L702 exits ... SP integral derivatives will be done elsewhere.
 Leave Link  702 at Wed Jun 24 01:03:29 2026, MaxMem=  1879048192 cpu:               0.0 elap:               0.0
 (Enter /CH/g16/l703.exe)
 Integral derivatives from FoFJK, PRISM(SPDF).
 Compute integral first derivatives, UseDBF=F ICtDFT=           0.
 Calling FoFJK, ICntrl=      2127 FMM=F ISym2X=0 I1Cent= 0 IOpClX= 0 NMat=1 NMatS=1 NMatT=0.
 FoFJK:  IHMeth= 1 ICntrl=    2127 DoSepK=F KAlg= 0 I1Cent=           0 FoldK=F
 IRaf=         0 NMat=       1 IRICut=       1 DoRegI=T DoRafI=F ISym2E= 0 IDoP0=0 IntGTp=1.
 FoFCou: FMM=F IPFlag=           0 FMFlag=      100000 FMFlg1=         800
         NFxFlg=           0 DoJE=F BraDBF=F KetDBF=F FulRan=T
         wScrn=  0.000000 ICntrl=      2127 IOpCl=  0 I1Cent=           0 NGrid=           0
         NMat0=    1 NMatS0=      1 NMatT0=    0 NMatD0=    1 NMtDS0=    0 NMtDT0=    0
 Symmetry not used in FoFCou.
 Leave Link  703 at Wed Jun 24 01:03:30 2026, MaxMem=  1879048192 cpu:               4.5 elap:               0.6
 (Enter /CH/g16/l716.exe)
 Dipole        =-2.64345746D+00 1.04713674D+00 4.46588553D-02
 ***** Axes restored to original set *****
 -------------------------------------------------------------------
 Center     Atomic                   Forces (Hartrees/Bohr)
 Number     Number              X              Y              Z
 -------------------------------------------------------------------
      1       13           0.009470577    0.000358008    0.000384466
      2        8          -0.001960214    0.001053878   -0.000178389
      3        8          -0.002779370   -0.000714888    0.000973953
      4        8          -0.002417230   -0.000610008   -0.001034749
      5        1           0.000757521   -0.001305343    0.000060097
      6        1           0.000407093    0.000372001   -0.000277940
      7        1           0.000351199    0.000341620    0.000296230
      8       13           0.005564485    0.000223149    0.000145472
      9       17          -0.006192735    0.000487735   -0.000135673
     10       17          -0.001113983    0.000644951   -0.000169226
     11       17          -0.000998464   -0.000765182   -0.000892580
     12       17          -0.001088879   -0.000085923    0.000828339
 -------------------------------------------------------------------
 Cartesian Forces:  Max     0.009470577 RMS     0.002297331
 Leave Link  716 at Wed Jun 24 01:03:30 2026, MaxMem=  1879048192 cpu:               0.0 elap:               0.0
 (Enter /CH/g16/l103.exe)

 GradGradGradGradGradGradGradGradGradGradGradGradGradGradGradGradGradGrad
 Berny optimization.
 FormGI is forming the generalized inverse of G from B-inverse, IUseBI=4.
 Internal  Forces:  Max     0.003169465 RMS     0.001039404
 Search for a local minimum.
 Step number   1 out of a maximum of   60
 All quantities printed in internal units (Hartrees-Bohrs-Radians)
 RMS Force = .10394D-02 SwitMx=.10000D-02 MixMth= 1
 Mixed Optimization -- RFO/linear search
 Second derivative matrix not updated -- first step.
 ITU=  0
     Eigenvalues ---    0.01044   0.01396   0.01886   0.03176   0.04674
     Eigenvalues ---    0.04674   0.04690   0.08551   0.08907   0.12800
     Eigenvalues ---    0.15113   0.16000   0.16000   0.16110   0.16110
     Eigenvalues ---    0.18546   0.18950   0.20903   0.20903   0.20904
     Eigenvalues ---    0.20904   0.25000   0.25000   0.25000   0.34673
     Eigenvalues ---    0.35328   0.35328   0.53042   0.54650   0.54650
 RFO step:  Lambda=-8.99460610D-04 EMin= 1.04410429D-02
 Linear search not attempted -- first point.
 Iteration  1 RMS(Cart)=  0.03305836 RMS(Int)=  0.00014601
 Iteration  2 RMS(Cart)=  0.00017797 RMS(Int)=  0.00006144
 Iteration  3 RMS(Cart)=  0.00000001 RMS(Int)=  0.00006144
 ITry= 1 IFail=0 DXMaxC= 9.88D-02 DCOld= 1.00D+10 DXMaxT= 3.00D-01 DXLimC= 3.00D+00 Rises=F
 Variable       Old X    -DE/DX   Delta X   Delta X   Delta X     New X
                                 (Linear)    (Quad)   (Total)
    R1        3.21246   0.00035   0.00000   0.00003  -0.00001   3.21245
    R2        3.22146   0.00082   0.00000   0.00231   0.00231   3.22377
    R3        3.22146   0.00084   0.00000   0.00237   0.00237   3.22383
    R4        6.61404  -0.00317   0.00000  -0.14729  -0.14729   6.46675
    R5        1.81810  -0.00038   0.00000  -0.00150  -0.00153   1.81657
    R6        1.82145  -0.00040   0.00000  -0.00073  -0.00073   1.82072
    R7        1.82145  -0.00038   0.00000  -0.00069  -0.00069   1.82076
    R8        6.67871  -0.00088   0.00000  -0.10309  -0.10306   6.57565
    R9        4.09231   0.00236   0.00000   0.01123   0.01123   4.10354
   R10        4.09232  -0.00102   0.00000  -0.00484  -0.00484   4.08748
   R11        4.09230  -0.00140   0.00000  -0.00668  -0.00668   4.08562
   R12        4.09230  -0.00116   0.00000  -0.00554  -0.00554   4.08675
    A1        2.05514   0.00016   0.00000   0.00024   0.00002   2.05516
    A2        2.05514  -0.00009   0.00000  -0.00096  -0.00116   2.05399
    A3        1.57080   0.00069   0.00000   0.00855   0.00852   1.57932
    A4        2.17087  -0.00025   0.00000  -0.00156  -0.00179   2.16909
    A5        1.57079   0.00122   0.00000   0.01417   0.01419   1.58498
    A6        1.62860   0.00069   0.00000   0.01045   0.01047   1.63908
    A7        2.19124  -0.00096   0.00000  -0.01498  -0.01506   2.17617
    A8        2.14464  -0.00047   0.00000  -0.00289  -0.00289   2.14175
    A9        2.14464  -0.00046   0.00000  -0.00285  -0.00285   2.14179
   A10        1.82703   0.00021   0.00000  -0.00435  -0.00437   1.82266
   A11        1.91063  -0.00169   0.00000  -0.00654  -0.00656   1.90407
   A12        1.91064  -0.00122   0.00000  -0.00500  -0.00501   1.90562
   A13        1.91064  -0.00147   0.00000  -0.00591  -0.00593   1.90470
   A14        1.91063   0.00149   0.00000   0.00602   0.00601   1.91664
   A15        1.91063   0.00174   0.00000   0.00724   0.00722   1.91785
   A16        1.91063   0.00114   0.00000   0.00419   0.00417   1.91481
   A17        0.69360   0.00006   0.00000   0.01081   0.01096   0.70456
   A18        2.44799   0.00007   0.00000  -0.00014  -0.00021   2.44778
   A19        3.14159   0.00012   0.00000   0.01068   0.01075   3.15234
   A20        3.14160   0.00016   0.00000   0.01635   0.01635   3.15795
    D1        1.60346   0.00162   0.00000   0.01894   0.01894   1.62240
    D2       -1.60346  -0.00127   0.00000  -0.01786  -0.01786  -1.62132
    D3        0.03267  -0.00012   0.00000  -0.00157  -0.00157   0.03109
    D4        3.07038  -0.00131   0.00000  -0.01463  -0.01461   3.05577
    D5       -0.00115   0.00179   0.00000   0.02481   0.02480   0.02365
    D6       -1.64201   0.00012   0.00000   0.00249   0.00248  -1.63953
    D7       -3.07038   0.00123   0.00000   0.01446   0.01443  -3.05595
    D8        0.00115  -0.00185   0.00000  -0.02493  -0.02491  -0.02376
    D9        1.61155   0.00009   0.00000  -0.00067  -0.00066   1.61090
   D10       -0.01132   0.00004   0.00000   0.00041   0.00041  -0.01090
   D11       -2.06646  -0.00012   0.00000   0.00017   0.00018  -2.06627
   D12        2.04471   0.00002   0.00000   0.00032   0.00028   2.04499
   D13       -0.03344   0.00014   0.00000   0.00188   0.00187  -0.03157
   D14        0.02067  -0.00006   0.00000  -0.00075  -0.00076   0.01991
   D15       -3.12093  -0.00022   0.00000  -0.01710  -0.01711  -3.13804
   D16        2.87248  -0.00004   0.00000   0.00033   0.00033   2.87282
   D17        0.77809  -0.00009   0.00000   0.00002   0.00002   0.77811
   D18       -1.31631   0.00016   0.00000   0.00157   0.00157  -1.31474
         Item               Value     Threshold  Converged?
 Maximum Force            0.003169     0.000450     NO 
 RMS     Force            0.001039     0.000300     NO 
 Maximum Displacement     0.098766     0.001800     NO 
 RMS     Displacement     0.033131     0.001200     NO 
 Predicted change in Energy=-4.655503D-04
 Lowest energy point so far.  Saving SCF results.
 GradGradGradGradGradGradGradGradGradGradGradGradGradGradGradGradGradGrad

 Leave Link  103 at Wed Jun 24 01:03:30 2026, MaxMem=  1879048192 cpu:               0.0 elap:               0.0
 (Enter /CH/g16/l202.exe)
                          Input orientation:                          
 ---------------------------------------------------------------------
 Center     Atomic      Atomic             Coordinates (Angstroms)
 Number     Number       Type             X           Y           Z
 ---------------------------------------------------------------------
      1         13           0        0.048816    0.009203    0.001330
      2          8           0       -0.007110    1.708231    0.006433
      3          8           0       -0.011338   -0.792100    1.506171
      4          8           0        0.007111   -0.780675   -1.510198
      5          1           0        0.764906    2.280964    0.012590
      6          1           0       -0.054026   -1.751493    1.583891
      7          1           0       -0.034487   -1.739469   -1.595752
      8         13           0        5.638101    0.121216    0.184468
      9         17           0        3.467552    0.092184    0.127150
     10         17           0        6.356245   -1.828845    0.784555
     11         17           0        6.291346    1.612481    1.607046
     12         17           0        6.392594    0.609673   -1.782526
 ---------------------------------------------------------------------
                    Distance matrix (angstroms):
                    1          2          3          4          5
     1  Al   0.000000
     2  O    1.699956   0.000000
     3  O    1.705946   2.915628   0.000000
     4  O    1.705979   2.914623   3.016447   0.000000
     5  H    2.381977   0.961285   3.503864   3.502395   0.000000
     6  H    2.369625   3.802665   0.963482   3.243395   4.404582
     7  H    2.369697   3.801893   3.243451   0.963503   4.403372
     8  Al   5.593407   5.866748   5.873432   5.949231   5.333113
     9  Cl   3.422057   3.833988   3.845300   3.926505   3.479682
    10  Cl   6.616308   7.321795   6.491663   6.831988   6.982088
    11  Cl   6.642139   6.499360   6.746555   7.411883   5.790570
    12  Cl   6.617116   6.735237   7.334223   6.540766   6.138935
                    6          7          8          9         10
     6  H    0.000000
     7  H    3.179726   0.000000
     8  Al   6.153515   6.229735   0.000000
     9  Cl   4.233527   4.311336   2.171500   0.000000
    10  Cl   6.460380   6.820213   2.163001   3.530875   0.000000
    11  Cl   7.181964   7.842809   2.162019   3.532026   3.538846
    12  Cl   7.646357   6.845489   2.162617   3.531363   3.540847
                   11         12
    11  Cl   0.000000
    12  Cl   3.536251   0.000000
 Stoichiometry    Al2Cl4H3O3(1-)
 Framework group  C1[X(Al2Cl4H3O3)]
 Deg. of freedom    30
 Full point group                 C1      NOp   1
 RotChk:  IX=0 Diff= 5.26D-02
 Largest Abelian subgroup         C1      NOp   1
 Largest concise Abelian subgroup C1      NOp   1
                         Standard orientation:                         
 ---------------------------------------------------------------------
 Center     Atomic      Atomic             Coordinates (Angstroms)
 Number     Number       Type             X           Y           Z
 ---------------------------------------------------------------------
      1         13           0       -3.731886   -0.022107   -0.006542
      2          8           0       -3.744577   -1.717503   -0.130332
      3          8           0       -3.760970    0.880302   -1.453974
      4          8           0       -3.845075    0.659597    1.553212
      5          1           0       -2.958549   -2.270594   -0.148205
      6          1           0       -3.825258    1.841547   -1.467089
      7          1           0       -3.913824    1.608918    1.702879
      8         13           0        1.861438    0.006893    0.003039
      9         17           0       -0.309842   -0.017837   -0.015435
     10         17           0        2.550026    2.009891   -0.435620
     11         17           0        2.600339   -1.366499   -1.494340
     12         17           0        2.560561   -0.599746    1.957554
 ---------------------------------------------------------------------
 Rotational constants (GHZ):           0.8516541           0.2310828           0.2309933
 Leave Link  202 at Wed Jun 24 01:03:30 2026, MaxMem=  1879048192 cpu:               0.0 elap:               0.0
 (Enter /CH/g16/l301.exe)
 Standard basis: def2SVP (5D, 7F)
 Ernie: Thresh=  0.10000D-02 Tol=  0.10000D-05 Strict=F.
 There are   174 symmetry adapted cartesian basis functions of A   symmetry.
 There are   165 symmetry adapted basis functions of A   symmetry.
   165 basis functions,   318 primitive gaussians,   174 cartesian basis functions
    61 alpha electrons       61 beta electrons
       nuclear repulsion energy       940.1242549989 Hartrees.
 IExCor=  402 DFT=T Ex+Corr=B3LYP ExCW=0 ScaHFX=  0.200000
 ScaDFX=  0.800000  0.720000  1.000000  0.810000 ScalE2=  1.000000  1.000000
 IRadAn=      5 IRanWt=     -1 IRanGd=            0 ICorTp=0 IEmpDi=141
 NAtoms=   12 NActive=   12 NUniq=   12 SFac= 1.00D+00 NAtFMM=   60 NAOKFM=F Big=F
 Integral buffers will be    131072 words long.
 Raffenetti 2 integral format.
 Two-electron integral symmetry is turned on.
 R6Disp:  Grimme-D3(BJ) Dispersion energy=       -0.0240947200 Hartrees.
 Nuclear repulsion after empirical dispersion term =      940.1001602788 Hartrees.
 ------------------------------------------------------------------------------
 Polarizable Continuum Model (PCM)
 =================================
 Model                : PCM.
 Atomic radii         : SMD-Coulomb.
 Polarization charges : Total charges.
 Charge compensation  : None.
 Solution method      : On-the-fly selection.
 Cavity type          : VdW (van der Waals Surface) (Alpha=1.000).
 Cavity algorithm     : GePol (No added spheres)
                        Default sphere list used, NSphG=   12.
                        Lebedev-Laikov grids with approx.  5.0 points / Ang**2.
                        Smoothing algorithm: York/Karplus (Gamma=1.0000).
                        Polarization charges: spherical gaussians, with
                                              point-specific exponents (IZeta= 3).
                        Self-potential: point-specific (ISelfS= 7).
                        Self-field    : sphere-specific E.n sum rule (ISelfD= 2).
 1st derivatives      : Analytical E(r).r(x)/FMM algorithm (CHGder, D1EAlg=3).
                        Cavity 1st derivative terms included.
 Solvent              : TetraHydroFuran, Eps=   7.425700 Eps(inf)=   1.974025
 ------------------------------------------------------------------------------
 Spheres list:
 ISph  on   Nord     Re0    Alpha      Xe            Ye            Ze
    1  Al      1    2.3000  1.000     -3.731886     -0.022107     -0.006542
    2   O      2    2.2940  1.000     -3.744577     -1.717503     -0.130332
    3   O      3    2.2940  1.000     -3.760970      0.880302     -1.453974
    4   O      4    2.2940  1.000     -3.845075      0.659597      1.553212
    5   H      5    1.2000  1.000     -2.958549     -2.270594     -0.148205
    6   H      6    1.2000  1.000     -3.825258      1.841547     -1.467089
    7   H      7    1.2000  1.000     -3.913824      1.608918      1.702879
    8  Al      8    2.3000  1.000      1.861438      0.006893      0.003039
    9  Cl      9    2.3800  1.000     -0.309842     -0.017837     -0.015435
   10  Cl     10    2.3800  1.000      2.550026      2.009891     -0.435620
   11  Cl     11    2.3800  1.000      2.600339     -1.366499     -1.494340
   12  Cl     12    2.3800  1.000      2.560561     -0.599746      1.957554
 ------------------------------------------------------------------------------
 GePol: Number of generator spheres                  =      12
 GePol: Total number of spheres                      =      12
 GePol: Number of exposed spheres                    =       9 ( 75.00%)
 GePol: Number of points                             =    2066
 GePol: Average weight of points                     =       0.15
 GePol: Minimum weight of points                     =   0.15D-06
 GePol: Maximum weight of points                     =    0.18138
 GePol: Number of points with low weight             =      43
 GePol: Fraction of low-weight points (<1% of avg)   =       2.08%
 GePol: Cavity surface area                          =    304.692 Ang**2
 GePol: Cavity volume                                =    321.414 Ang**3
 ------------------------------------------------------------------------------
 Atomic radii for non-electrostatic terms: SMD-CDS.
 ------------------------------------------------------------------------------
 PCM non-electrostatic energy =        -0.0051891395 Hartrees.
 Nuclear repulsion after PCM non-electrostatic terms =      940.0949711393 Hartrees.
 Leave Link  301 at Wed Jun 24 01:03:30 2026, MaxMem=  1879048192 cpu:               0.0 elap:               0.0
 (Enter /CH/g16/l302.exe)
 NPDir=0 NMtPBC=     1 NCelOv=     1 NCel=       1 NClECP=     1 NCelD=      1
         NCelK=      1 NCelE2=     1 NClLst=     1 CellRange=     0.0.
 One-electron integrals computed using PRISM.
 One-electron integral symmetry used in STVInt
   1 Symmetry operations used in ECPInt.
 ECPInt:  NShTT=    2850 NPrTT=   12906 LenC2=    2437 LenP2D=    7308.
 LDataN:  DoStor=T MaxTD1= 4 Len=   56
 NBasis=   165 RedAO= T EigKep=  2.43D-02  NBF=   165
 NBsUse=   165 1.00D-06 EigRej= -1.00D+00 NBFU=   165
 Precomputing XC quadrature grid using
 IXCGrd= 4 IRadAn=           5 IRanWt=          -1 IRanGd=           0 AccXCQ= 0.00D+00.
 Generated NRdTot=       0 NPtTot=           0 NUsed=           0 NTot=          32
 NSgBfM=   169   169   169   169   169 MxSgAt=    12 MxSgA2=    12.
 Leave Link  302 at Wed Jun 24 01:03:30 2026, MaxMem=  1879048192 cpu:               0.4 elap:               0.1
 (Enter /CH/g16/l303.exe)
 DipDrv:  MaxL=1.
 Leave Link  303 at Wed Jun 24 01:03:30 2026, MaxMem=  1879048192 cpu:               0.0 elap:               0.0
 (Enter /CH/g16/l401.exe)
 Initial guess from the checkpoint file:  "AlOH3_cpx.chk"
 B after Tr=     0.000000   -0.000000   -0.000000
         Rot=    0.999867   -0.016271    0.000433   -0.000713 Ang=  -1.87 deg.
 Guess basis will be translated and rotated to current coordinates.
 JPrj=2 DoOrth=T DoCkMO=T.
 Generating alternative initial guess.
 ExpMin= 5.44D-02 ExpMax= 1.04D+04 ExpMxC= 1.57D+03 IAcc=3 IRadAn=         5 AccDes= 0.00D+00
 Harris functional with IExCor=  402 and IRadAn=       5 diagonalized for initial guess.
 HarFok:  IExCor=  402 AccDes= 0.00D+00 IRadAn=         5 IDoV= 1 UseB2=F ITyADJ=14
 ICtDFT=  3500011 ScaDFX=  1.000000  1.000000  1.000000  1.000000
 FoFCou: FMM=F IPFlag=           0 FMFlag=      100000 FMFlg1=           0
         NFxFlg=           0 DoJE=T BraDBF=F KetDBF=T FulRan=T
         wScrn=  0.000000 ICntrl=       500 IOpCl=  0 I1Cent=   200000004 NGrid=           0
         NMat0=    1 NMatS0=      1 NMatT0=    0 NMatD0=    1 NMtDS0=    0 NMtDT0=    0
 Petite list used in FoFCou.
 Harris En= -2552.74207770184    
 Leave Link  401 at Wed Jun 24 01:03:30 2026, MaxMem=  1879048192 cpu:               1.5 elap:               0.2
 (Enter /CH/g16/l502.exe)
 Keep R1 ints in memory in canonical form, NReq=101797110.
 FoFCou: FMM=F IPFlag=           0 FMFlag=           0 FMFlg1=           0
         NFxFlg=           0 DoJE=F BraDBF=F KetDBF=F FulRan=T
         wScrn=  0.000000 ICntrl=       600 IOpCl=  0 I1Cent=           0 NGrid=           0
         NMat0=    1 NMatS0=  13695 NMatT0=    0 NMatD0=    1 NMtDS0=    0 NMtDT0=    0
 Symmetry not used in FoFCou.
 Two-electron integral symmetry not used.
 Closed shell SCF:
 Using DIIS extrapolation, IDIIS=  1040.
 NGot=  1879048192 LenX=  1785200790 LenY=  1785170073
 Requested convergence on RMS density matrix=1.00D-08 within 128 cycles.
 Requested convergence on MAX density matrix=1.00D-06.
 Requested convergence on             energy=1.00D-06.
 No special actions if energy rises.

 Cycle   1  Pass 1  IDiag  1:
 Inv3:  Mode=1 IEnd=    12805068.
 Iteration    1 A*A^-1 deviation from unit magnitude is 2.89D-15 for   1338.
 Iteration    1 A*A^-1 deviation from orthogonality  is 1.38D-15 for   2035    827.
 Iteration    1 A^-1*A deviation from unit magnitude is 3.11D-15 for   1638.
 Iteration    1 A^-1*A deviation from orthogonality  is 1.55D-15 for   1850   1329.
 E= -2552.96974997103    
 DIIS: error= 9.55D-04 at cycle   1 NSaved=   1.
 NSaved= 1 IEnMin= 1 EnMin= -2552.96974997103     IErMin= 1 ErrMin= 9.55D-04
 ErrMax= 9.55D-04  0.00D+00 EMaxC= 1.00D-01 BMatC= 2.35D-04 BMatP= 2.35D-04
 IDIUse=3 WtCom= 9.90D-01 WtEn= 9.55D-03
 Coeff-Com:  0.100D+01
 Coeff-En:   0.100D+01
 Coeff:      0.100D+01
 Gap=     0.454 Goal=   None    Shift=    0.000
 RMSDP=1.49D-04 MaxDP=3.05D-03              OVMax= 4.14D-03

 Cycle   2  Pass 1  IDiag  1:
 E= -2552.97000516374     Delta-E=       -0.000255192717 Rises=F Damp=F
 DIIS: error= 1.28D-04 at cycle   2 NSaved=   2.
 NSaved= 2 IEnMin= 2 EnMin= -2552.97000516374     IErMin= 2 ErrMin= 1.28D-04
 ErrMax= 1.28D-04  0.00D+00 EMaxC= 1.00D-01 BMatC= 4.93D-06 BMatP= 2.35D-04
 IDIUse=3 WtCom= 9.99D-01 WtEn= 1.28D-03
 Coeff-Com:  0.177D-03 0.100D+01
 Coeff-En:   0.000D+00 0.100D+01
 Coeff:      0.177D-03 0.100D+01
 Gap=     0.263 Goal=   None    Shift=    0.000
 RMSDP=2.40D-05 MaxDP=6.25D-04 DE=-2.55D-04 OVMax= 8.36D-04

 Cycle   3  Pass 1  IDiag  1:
 E= -2552.97000661169     Delta-E=       -0.000001447951 Rises=F Damp=F
 DIIS: error= 1.68D-04 at cycle   3 NSaved=   3.
 NSaved= 3 IEnMin= 3 EnMin= -2552.97000661169     IErMin= 2 ErrMin= 1.28D-04
 ErrMax= 1.68D-04  0.00D+00 EMaxC= 1.00D-01 BMatC= 5.18D-06 BMatP= 4.93D-06
 IDIUse=3 WtCom= 9.98D-01 WtEn= 1.68D-03
 Coeff-Com: -0.179D-01 0.517D+00 0.501D+00
 Coeff-En:   0.000D+00 0.412D+00 0.588D+00
 Coeff:     -0.179D-01 0.516D+00 0.502D+00
 Gap=     0.263 Goal=   None    Shift=    0.000
 RMSDP=1.25D-05 MaxDP=3.90D-04 DE=-1.45D-06 OVMax= 4.44D-04

 Cycle   4  Pass 1  IDiag  1:
 E= -2552.97001090904     Delta-E=       -0.000004297346 Rises=F Damp=F
 DIIS: error= 4.54D-05 at cycle   4 NSaved=   4.
 NSaved= 4 IEnMin= 4 EnMin= -2552.97001090904     IErMin= 4 ErrMin= 4.54D-05
 ErrMax= 4.54D-05  0.00D+00 EMaxC= 1.00D-01 BMatC= 3.20D-07 BMatP= 4.93D-06
 IDIUse=1 WtCom= 1.00D+00 WtEn= 0.00D+00
 Coeff-Com: -0.862D-02 0.186D+00 0.255D+00 0.568D+00
 Coeff:     -0.862D-02 0.186D+00 0.255D+00 0.568D+00
 Gap=     0.263 Goal=   None    Shift=    0.000
 RMSDP=2.70D-06 MaxDP=1.03D-04 DE=-4.30D-06 OVMax= 1.04D-04

 Cycle   5  Pass 1  IDiag  1:
 E= -2552.97001115017     Delta-E=       -0.000000241128 Rises=F Damp=F
 DIIS: error= 5.82D-06 at cycle   5 NSaved=   5.
 NSaved= 5 IEnMin= 5 EnMin= -2552.97001115017     IErMin= 5 ErrMin= 5.82D-06
 ErrMax= 5.82D-06  0.00D+00 EMaxC= 1.00D-01 BMatC= 1.14D-08 BMatP= 3.20D-07
 IDIUse=1 WtCom= 1.00D+00 WtEn= 0.00D+00
 Coeff-Com: -0.138D-02 0.165D-01 0.422D-01 0.196D+00 0.747D+00
 Coeff:     -0.138D-02 0.165D-01 0.422D-01 0.196D+00 0.747D+00
 Gap=     0.263 Goal=   None    Shift=    0.000
 RMSDP=8.79D-07 MaxDP=3.81D-05 DE=-2.41D-07 OVMax= 2.72D-05

 Cycle   6  Pass 1  IDiag  1:
 E= -2552.97001115955     Delta-E=       -0.000000009384 Rises=F Damp=F
 DIIS: error= 2.53D-06 at cycle   6 NSaved=   6.
 NSaved= 6 IEnMin= 6 EnMin= -2552.97001115955     IErMin= 6 ErrMin= 2.53D-06
 ErrMax= 2.53D-06  0.00D+00 EMaxC= 1.00D-01 BMatC= 2.09D-09 BMatP= 1.14D-08
 IDIUse=1 WtCom= 1.00D+00 WtEn= 0.00D+00
 Coeff-Com: -0.783D-04-0.585D-02 0.237D-02 0.593D-01 0.384D+00 0.560D+00
 Coeff:     -0.783D-04-0.585D-02 0.237D-02 0.593D-01 0.384D+00 0.560D+00
 Gap=     0.263 Goal=   None    Shift=    0.000
 RMSDP=2.99D-07 MaxDP=1.48D-05 DE=-9.38D-09 OVMax= 9.36D-06

 Cycle   7  Pass 1  IDiag  1:
 E= -2552.97001116146     Delta-E=       -0.000000001910 Rises=F Damp=F
 DIIS: error= 1.00D-06 at cycle   7 NSaved=   7.
 NSaved= 7 IEnMin= 7 EnMin= -2552.97001116146     IErMin= 7 ErrMin= 1.00D-06
 ErrMax= 1.00D-06  0.00D+00 EMaxC= 1.00D-01 BMatC= 1.60D-10 BMatP= 2.09D-09
 IDIUse=1 WtCom= 1.00D+00 WtEn= 0.00D+00
 Coeff-Com:  0.359D-04-0.454D-02-0.130D-02 0.227D-01 0.177D+00 0.313D+00
 Coeff-Com:  0.493D+00
 Coeff:      0.359D-04-0.454D-02-0.130D-02 0.227D-01 0.177D+00 0.313D+00
 Coeff:      0.493D+00
 Gap=     0.263 Goal=   None    Shift=    0.000
 RMSDP=6.28D-08 MaxDP=2.46D-06 DE=-1.91D-09 OVMax= 2.79D-06

 Cycle   8  Pass 1  IDiag  1:
 E= -2552.97001116155     Delta-E=       -0.000000000091 Rises=F Damp=F
 DIIS: error= 1.70D-07 at cycle   8 NSaved=   8.
 NSaved= 8 IEnMin= 8 EnMin= -2552.97001116155     IErMin= 8 ErrMin= 1.70D-07
 ErrMax= 1.70D-07  0.00D+00 EMaxC= 1.00D-01 BMatC= 8.07D-12 BMatP= 1.60D-10
 IDIUse=1 WtCom= 1.00D+00 WtEn= 0.00D+00
 Coeff-Com:  0.229D-04-0.152D-02-0.864D-03 0.453D-02 0.429D-01 0.890D-01
 Coeff-Com:  0.231D+00 0.635D+00
 Coeff:      0.229D-04-0.152D-02-0.864D-03 0.453D-02 0.429D-01 0.890D-01
 Coeff:      0.231D+00 0.635D+00
 Gap=     0.263 Goal=   None    Shift=    0.000
 RMSDP=1.80D-08 MaxDP=9.03D-07 DE=-9.09D-11 OVMax= 5.82D-07

 Cycle   9  Pass 1  IDiag  1:
 E= -2552.97001116157     Delta-E=       -0.000000000020 Rises=F Damp=F
 DIIS: error= 3.54D-08 at cycle   9 NSaved=   9.
 NSaved= 9 IEnMin= 9 EnMin= -2552.97001116157     IErMin= 9 ErrMin= 3.54D-08
 ErrMax= 3.54D-08  0.00D+00 EMaxC= 1.00D-01 BMatC= 3.14D-13 BMatP= 8.07D-12
 IDIUse=1 WtCom= 1.00D+00 WtEn= 0.00D+00
 Coeff-Com:  0.398D-05-0.111D-03-0.142D-03-0.190D-03 0.279D-03 0.453D-02
 Coeff-Com:  0.341D-01 0.203D+00 0.758D+00
 Coeff:      0.398D-05-0.111D-03-0.142D-03-0.190D-03 0.279D-03 0.453D-02
 Coeff:      0.341D-01 0.203D+00 0.758D+00
 Gap=     0.263 Goal=   None    Shift=    0.000
 RMSDP=5.66D-09 MaxDP=2.83D-07 DE=-2.00D-11 OVMax= 1.58D-07

 Error on total polarization charges =  0.00086
 SCF Done:  E(RB3LYP) =  -2552.97001116     A.U. after    9 cycles
            NFock=  9  Conv=0.57D-08     -V/T= 2.0030
 KE= 2.545429668659D+03 PE=-7.971339948414D+03 EE= 1.932845297454D+03
 SMD-CDS (non-electrostatic) energy       (kcal/mol) =      -3.26
 (included in total energy above)
 Leave Link  502 at Wed Jun 24 01:03:35 2026, MaxMem=  1879048192 cpu:              25.7 elap:               4.5
 (Enter /CH/g16/l701.exe)
 ... and contract with generalized density number  0.
 Compute integral first derivatives.
 R6Disp: Adding Grimme-D3(BJ) dispersion energy 1st derivatives to the gradient.
   1 Symmetry operations used in ECPInt.
 ECPInt:  NShTT=    2850 NPrTT=   12906 LenC2=    2437 LenP2D=    7308.
 LDataN:  DoStor=T MaxTD1= 5 Len=  102
 D1PCM: PCM CHGder 1st derivatives, ID1Alg=3 FixD1E=F DoIter=F DoCFld=F I1PDM=0.
 GePol: Maximum number of non-zero 1st derivatives   =     344
 Leave Link  701 at Wed Jun 24 01:03:35 2026, MaxMem=  1879048192 cpu:               3.7 elap:               0.5
 (Enter /CH/g16/l702.exe)
 L702 exits ... SP integral derivatives will be done elsewhere.
 Leave Link  702 at Wed Jun 24 01:03:35 2026, MaxMem=  1879048192 cpu:               0.0 elap:               0.0
 (Enter /CH/g16/l703.exe)
 Integral derivatives from FoFJK, PRISM(SPDF).
 Compute integral first derivatives, UseDBF=F ICtDFT=           0.
 Calling FoFJK, ICntrl=      2127 FMM=F ISym2X=0 I1Cent= 0 IOpClX= 0 NMat=1 NMatS=1 NMatT=0.
 FoFJK:  IHMeth= 1 ICntrl=    2127 DoSepK=F KAlg= 0 I1Cent=           0 FoldK=F
 IRaf=         0 NMat=       1 IRICut=       1 DoRegI=T DoRafI=F ISym2E= 0 IDoP0=0 IntGTp=1.
 FoFCou: FMM=F IPFlag=           0 FMFlag=      100000 FMFlg1=         800
         NFxFlg=           0 DoJE=F BraDBF=F KetDBF=F FulRan=T
         wScrn=  0.000000 ICntrl=      2127 IOpCl=  0 I1Cent=           0 NGrid=           0
         NMat0=    1 NMatS0=      1 NMatT0=    0 NMatD0=    1 NMtDS0=    0 NMtDT0=    0
 Symmetry not used in FoFCou.
 Leave Link  703 at Wed Jun 24 01:03:36 2026, MaxMem=  1879048192 cpu:               4.7 elap:               0.6
 (Enter /CH/g16/l716.exe)
 Dipole        =-2.46853793D+00 1.04372755D+00 8.38021944D-02
 ***** Axes restored to original set *****
 -------------------------------------------------------------------
 Center     Atomic                   Forces (Hartrees/Bohr)
 Number     Number              X              Y              Z
 -------------------------------------------------------------------
      1       13           0.008518361   -0.000761936    0.000392682
      2        8          -0.002134498    0.000891894   -0.000135987
      3        8          -0.002450020   -0.000105684    0.000463668
      4        8          -0.002171182   -0.000085193   -0.000666123
      5        1           0.001518149   -0.000444554    0.000072466
      6        1           0.000452623   -0.000027091   -0.000219676
      7        1           0.000391863   -0.000037822    0.000235574
      8       13           0.003722428    0.000038025    0.000033848
      9       17          -0.005894968    0.000575503   -0.000017331
     10       17          -0.000723206    0.000440918   -0.000254754
     11       17          -0.000574854   -0.000293515   -0.000303643
     12       17          -0.000654696   -0.000190544    0.000399276
 -------------------------------------------------------------------
 Cartesian Forces:  Max     0.008518361 RMS     0.001999234
 Leave Link  716 at Wed Jun 24 01:03:36 2026, MaxMem=  1879048192 cpu:               0.0 elap:               0.0
 (Enter /CH/g16/l103.exe)

 GradGradGradGradGradGradGradGradGradGradGradGradGradGradGradGradGradGrad
 Berny optimization.
 Using GEDIIS/GDIIS optimizer.
 FormGI is forming the generalized inverse of G from B-inverse, IUseBI=4.
 Internal  Forces:  Max     0.003280409 RMS     0.000853005
 Search for a local minimum.
 Step number   2 out of a maximum of   60
 All quantities printed in internal units (Hartrees-Bohrs-Radians)
 RMS Force = .85300D-03 SwitMx=.10000D-02 MixMth= 2
 Mixed Optimization -- En-DIIS/RFO-DIIS
 Update second derivatives using D2CorX and points    1    2
 DE= -8.83D-04 DEPred=-4.66D-04 R= 1.90D+00
 TightC=F SS=  1.41D+00  RLast= 1.91D-01 DXNew= 5.0454D-01 5.7363D-01
 Trust test= 1.90D+00 RLast= 1.91D-01 DXMaxT set to 5.05D-01
 ITU=  1  0
 Use linear search instead of GDIIS.
     Eigenvalues ---    0.00054   0.01059   0.01886   0.03172   0.03914
     Eigenvalues ---    0.04674   0.04694   0.08541   0.08928   0.12906
     Eigenvalues ---    0.15024   0.15958   0.16000   0.16201   0.16540
     Eigenvalues ---    0.18531   0.19089   0.20727   0.20903   0.20904
     Eigenvalues ---    0.22305   0.24983   0.25000   0.27499   0.34968
     Eigenvalues ---    0.35325   0.37974   0.54185   0.54650   0.58424
 RFO step:  Lambda=-1.12805748D-04 EMin= 5.36955902D-04
 Quartic linear search produced a step of  2.00000.
 Iteration  1 RMS(Cart)=  0.05424889 RMS(Int)=  0.01891536
 Iteration  2 RMS(Cart)=  0.03490619 RMS(Int)=  0.00052082
 Iteration  3 RMS(Cart)=  0.00011754 RMS(Int)=  0.00051344
 Iteration  4 RMS(Cart)=  0.00000001 RMS(Int)=  0.00051344
 ITry= 1 IFail=0 DXMaxC= 2.26D-01 DCOld= 1.00D+10 DXMaxT= 5.05D-01 DXLimC= 3.00D+00 Rises=F
 Variable       Old X    -DE/DX   Delta X   Delta X   Delta X     New X
                                 (Linear)    (Quad)   (Total)
    R1        3.21245   0.00106  -0.00002   0.00808   0.00775   3.22020
    R2        3.22377   0.00035   0.00462  -0.00098   0.00364   3.22741
    R3        3.22383   0.00049   0.00474   0.00010   0.00484   3.22867
    R4        6.46675  -0.00328  -0.29458  -0.04441  -0.33898   6.12777
    R5        1.81657   0.00061  -0.00306   0.00398   0.00073   1.81729
    R6        1.82072  -0.00000  -0.00146   0.00121  -0.00024   1.82047
    R7        1.82076   0.00001  -0.00138   0.00121  -0.00017   1.82058
    R8        6.57565  -0.00102  -0.20613   0.00062  -0.20530   6.37034
    R9        4.10354   0.00176   0.02246   0.00543   0.02789   4.13143
   R10        4.08748  -0.00072  -0.00968  -0.00173  -0.01141   4.07607
   R11        4.08562  -0.00057  -0.01335   0.00364  -0.00972   4.07591
   R12        4.08675  -0.00063  -0.01109   0.00069  -0.01040   4.07635
    A1        2.05516   0.00010   0.00004  -0.00000  -0.00191   2.05325
    A2        2.05399  -0.00004  -0.00231  -0.00008  -0.00412   2.04987
    A3        1.57932   0.00052   0.01704   0.00867   0.02548   1.60480
    A4        2.16909  -0.00029  -0.00358  -0.00210  -0.00767   2.16141
    A5        1.58498   0.00098   0.02837   0.00621   0.03473   1.61971
    A6        1.63908   0.00064   0.02095   0.00574   0.02690   1.66597
    A7        2.17617  -0.00071  -0.03013  -0.00354  -0.03425   2.14192
    A8        2.14175  -0.00042  -0.00578  -0.00262  -0.00840   2.13335
    A9        2.14179  -0.00043  -0.00570  -0.00295  -0.00865   2.13314
   A10        1.82266  -0.00017  -0.00874  -0.00863  -0.01749   1.80517
   A11        1.90407  -0.00115  -0.01312  -0.00261  -0.01587   1.88820
   A12        1.90562  -0.00075  -0.01003   0.00042  -0.00972   1.89590
   A13        1.90470  -0.00101  -0.01186  -0.00199  -0.01399   1.89071
   A14        1.91664   0.00107   0.01201   0.00299   0.01488   1.93152
   A15        1.91785   0.00083   0.01444  -0.00390   0.01037   1.92823
   A16        1.91481   0.00098   0.00834   0.00503   0.01326   1.92806
   A17        0.70456   0.00036   0.02192   0.00347   0.02632   0.73088
   A18        2.44778  -0.00004  -0.00042   0.00126   0.00037   2.44815
   A19        3.15234   0.00032   0.02149   0.00472   0.02669   3.17902
   A20        3.15795   0.00025   0.03270   0.01135   0.04401   3.20196
    D1        1.62240   0.00132   0.03788   0.01284   0.05068   1.67308
    D2       -1.62132  -0.00106  -0.03571  -0.00979  -0.04545  -1.66676
    D3        0.03109  -0.00006  -0.00315   0.00126  -0.00191   0.02918
    D4        3.05577  -0.00098  -0.02923  -0.00665  -0.03566   3.02011
    D5        0.02365   0.00155   0.04960   0.01748   0.06689   0.09053
    D6       -1.63953   0.00013   0.00496   0.00642   0.01135  -1.62818
    D7       -3.05595   0.00094   0.02886   0.00728   0.03582  -3.02013
    D8       -0.02376  -0.00158  -0.04983  -0.01683  -0.06641  -0.09017
    D9        1.61090   0.00002  -0.00131  -0.00558  -0.00682   1.60408
   D10       -0.01090   0.00002   0.00082  -0.00045   0.00041  -0.01049
   D11       -2.06627  -0.00011   0.00037  -0.00073  -0.00028  -2.06655
   D12        2.04499   0.00004   0.00056   0.00044   0.00072   2.04571
   D13       -0.03157   0.00008   0.00374  -0.00099   0.00273  -0.02884
   D14        0.01991  -0.00003  -0.00152   0.00078  -0.00081   0.01910
   D15       -3.13804  -0.00028  -0.03422  -0.01057  -0.04482   3.10033
   D16        2.87282   0.00016   0.00066   0.00268   0.00330   2.87612
   D17        0.77811   0.00000   0.00004   0.00036   0.00040   0.77852
   D18       -1.31474  -0.00013   0.00313  -0.00482  -0.00164  -1.31638
         Item               Value     Threshold  Converged?
 Maximum Force            0.003280     0.000450     NO 
 RMS     Force            0.000853     0.000300     NO 
 Maximum Displacement     0.225751     0.001800     NO 
 RMS     Displacement     0.077638     0.001200     NO 
 Predicted change in Energy=-1.883565D-03
 Lowest energy point so far.  Saving SCF results.
 GradGradGradGradGradGradGradGradGradGradGradGradGradGradGradGradGradGrad

 Leave Link  103 at Wed Jun 24 01:03:36 2026, MaxMem=  1879048192 cpu:               0.0 elap:               0.0
 (Enter /CH/g16/l202.exe)
                          Input orientation:                          
 ---------------------------------------------------------------------
 Center     Atomic      Atomic             Coordinates (Angstroms)
 Number     Number       Type             X           Y           Z
 ---------------------------------------------------------------------
      1         13           0        0.151108    0.010534    0.005214
      2          8           0        0.030813    1.710233    0.024106
      3          8           0        0.024305   -0.809436    1.497996
      4          8           0        0.090562   -0.766427   -1.515238
      5          1           0        0.800996    2.285692    0.045955
      6          1           0       -0.015712   -1.770288    1.554648
      7          1           0        0.053390   -1.725296   -1.600979
      8         13           0        5.573985    0.122666    0.184687
      9         17           0        3.387841    0.127344    0.162915
     10         17           0        6.236783   -1.831673    0.812176
     11         17           0        6.252445    1.635789    1.563916
     12         17           0        6.273193    0.552231   -1.810236
 ---------------------------------------------------------------------
                    Distance matrix (angstroms):
                    1          2          3          4          5
     1  Al   0.000000
     2  O    1.704056   0.000000
     3  O    1.707871   2.919096   0.000000
     4  O    1.708540   2.916676   3.014269   0.000000
     5  H    2.366508   0.961671   3.505921   3.501067   0.000000
     6  H    2.366411   3.802467   0.963353   3.231599   4.403878
     7  H    2.366962   3.800562   3.231608   0.963411   4.399923
     8  Al   5.427005   5.768268   5.778629   5.809317   5.242075
     9  Cl   3.242677   3.714087   3.738098   3.806189   3.371040
    10  Cl   6.409396   7.188895   6.333262   6.657900   6.862038
    11  Cl   6.503639   6.409778   6.691278   7.295247   5.696040
    12  Cl   6.408527   6.608561   7.200496   6.328571   6.032849
                    6          7          8          9         10
     6  H    0.000000
     7  H    3.156704   0.000000
     8  Al   6.058448   6.089379   0.000000
     9  Cl   4.137886   4.202637   2.186258   0.000000
    10  Cl   6.296724   6.638447   2.156962   3.517920   0.000000
    11  Cl   7.133809   7.729277   2.156877   3.527629   3.548049
    12  Cl   7.501124   6.626980   2.157112   3.521237   3.544202
                   11         12
    11  Cl   0.000000
    12  Cl   3.543928   0.000000
 Stoichiometry    Al2Cl4H3O3(1-)
 Framework group  C1[X(Al2Cl4H3O3)]
 Deg. of freedom    30
 Full point group                 C1      NOp   1
 RotChk:  IX=0 Diff= 1.05D-01
 Largest Abelian subgroup         C1      NOp   1
 Largest concise Abelian subgroup C1      NOp   1
                         Standard orientation:                         
[...]
    A4        2.08145   0.00226   0.00465   0.00092   0.00557   2.08702
    A5        2.08173   0.00046   0.00074   0.00053   0.00127   2.08299
    A6        2.12345   0.00239   0.00085   0.01497   0.01584   2.13928
    A7        0.68781  -0.00397   0.00241   0.00808   0.01048   0.69828
    A8        1.60250   0.00362  -0.00167   0.00477   0.00308   1.60558
    A9        1.99232  -0.00048   0.00498  -0.03316  -0.02811   1.96421
   A10        1.52982   0.00145   0.00438  -0.01810  -0.01370   1.51612
   A11        2.17709  -0.00084  -0.00754   0.03974   0.03227   2.20935
   A12        1.73380   0.00318  -0.00175   0.01418   0.01237   1.74617
   A13        2.08933  -0.00167   0.00040  -0.00351  -0.00304   2.08629
   A14        1.65772   0.00770   0.00507  -0.00615  -0.00102   1.65671
   A15        1.65818  -0.02761   0.00207  -0.02201  -0.01993   1.63824
    D1        2.06123  -0.00057   0.00258   0.06192   0.06467   2.12590
    D2       -0.39178  -0.00083  -0.00359   0.10112   0.09737  -0.29442
    D3       -2.88562   0.00160  -0.00527   0.06299   0.05768  -2.82793
    D4       -0.49358  -0.00051   0.00374   0.01031   0.01409  -0.47949
    D5       -2.42318   0.00436  -0.00076   0.01208   0.01131  -2.41188
    D6       -1.61660   0.00018  -0.00210   0.00653   0.00443  -1.61217
    D7        1.45999   0.00485  -0.00939   0.06558   0.05619   1.51618
    D8        2.26657   0.00066  -0.01073   0.06004   0.04932   2.31589
    D9        1.22282  -0.01465  -0.00018  -0.04200  -0.04218   1.18064
   D10       -2.58086  -0.01046   0.00127  -0.03078  -0.02951  -2.61037
   D11       -2.02375   0.00359  -0.01367   0.00552  -0.00807  -2.03182
   D12        2.52833  -0.00053  -0.01401  -0.00090  -0.01502   2.51331
   D13        0.88015  -0.01090  -0.02274   0.01862  -0.00408   0.87607
         Item               Value     Threshold  Converged?
 Maximum Force            0.027608     0.000450     NO 
 RMS     Force            0.006498     0.000300     NO 
 Maximum Displacement     0.244893     0.001800     NO 
 RMS     Displacement     0.091251     0.001200     NO 
 Predicted change in Energy=-1.505806D-03
 Optimization stopped.
    -- Number of steps exceeded,  NStep=  49
    -- Flag reset to prevent archiving.
                           ----------------------------
                           ! Non-Optimized Parameters !
                           ! (Angstroms and Degrees)  !
 --------------------------                            --------------------------
 ! Name  Definition              Value          Derivative Info.                !
 --------------------------------------------------------------------------------
 ! R1    R(1,2)                  1.7859         -DE/DX =    0.0114              !
 ! R2    R(1,3)                  1.7203         -DE/DX =    0.0005              !
 ! R3    R(1,4)                  1.711          -DE/DX =    0.0087              !
 ! R4    R(2,5)                  0.9707         -DE/DX =   -0.0013              !
 ! R5    R(3,6)                  0.9626         -DE/DX =    0.0007              !
 ! R6    R(4,7)                  0.961          -DE/DX =    0.0014              !
 ! R7    R(4,9)                  3.3214         -DE/DX =   -0.002               !
 ! R8    R(8,9)                  2.4115         -DE/DX =    0.0036              !
 ! R9    R(8,10)                 2.1709         -DE/DX =    0.0016              !
 ! R10   R(8,11)                 2.2181         -DE/DX =    0.0036              !
 ! R11   R(8,12)                 2.2315         -DE/DX =   -0.0029              !
 ! A1    A(2,1,3)              112.4216         -DE/DX =    0.0008              !
 ! A2    A(2,1,4)              111.4795         -DE/DX =   -0.0034              !
 ! A3    A(3,1,4)              120.4187         -DE/DX =    0.0021              !
 ! A4    A(1,2,5)              119.5775         -DE/DX =    0.0023              !
 ! A5    A(1,3,6)              119.3467         -DE/DX =    0.0005              !
 ! A6    A(1,4,7)              122.5719         -DE/DX =    0.0024              !
 ! A7    A(1,4,9)               40.0087         -DE/DX =   -0.004               !
 ! A8    A(7,4,9)               91.9928         -DE/DX =    0.0036              !
 ! A9    A(9,8,10)             112.5411         -DE/DX =   -0.0005              !
 ! A10   A(9,8,11)              86.8673         -DE/DX =    0.0014              !
 ! A11   A(9,8,12)             126.5867         -DE/DX =   -0.0008              !
 ! A12   A(10,8,11)            100.0482         -DE/DX =    0.0032              !
 ! A13   A(10,8,12)            119.5357         -DE/DX =   -0.0017              !
 ! A14   A(11,8,12)             94.9222         -DE/DX =    0.0077              !
 ! A15   A(4,9,8)               93.8644         -DE/DX =   -0.0276              !
 ! D1    D(3,1,2,5)            121.8051         -DE/DX =   -0.0006              !
 ! D2    D(4,1,2,5)            -16.8688         -DE/DX =   -0.0008              !
 ! D3    D(2,1,3,6)           -162.0287         -DE/DX =    0.0016              !
 ! D4    D(4,1,3,6)            -27.473          -DE/DX =   -0.0005              !
 ! D5    D(2,1,4,7)           -138.1903         -DE/DX =    0.0044              !
 ! D6    D(2,1,4,9)            -92.3705         -DE/DX =    0.0002              !
 ! D7    D(3,1,4,7)             86.8709         -DE/DX =    0.0048              !
 ! D8    D(3,1,4,9)            132.6908         -DE/DX =    0.0007              !
 ! D9    D(1,4,9,8)             67.6457         -DE/DX =   -0.0146              !
 ! D10   D(7,4,9,8)           -149.5631         -DE/DX =   -0.0105              !
 ! D11   D(10,8,9,4)          -116.4149         -DE/DX =    0.0036              !
 ! D12   D(11,8,9,4)           144.0022         -DE/DX =   -0.0005              !
 ! D13   D(12,8,9,4)            50.1953         -DE/DX =   -0.0109              !
 --------------------------------------------------------------------------------
 Lowest energy point so far.  Saving SCF results.
 Largest change from initial coordinates is atom    5       0.834 Angstoms.
 GradGradGradGradGradGradGradGradGradGradGradGradGradGradGradGradGradGrad

 Leave Link  103 at Wed Jun 24 01:05:07 2026, MaxMem=  1879048192 cpu:               0.0 elap:               0.0
 (Enter /CH/g16/l202.exe)
                          Input orientation:                          
 ---------------------------------------------------------------------
 Center     Atomic      Atomic             Coordinates (Angstroms)
 Number     Number       Type             X           Y           Z
 ---------------------------------------------------------------------
      1         13           0        2.725139    1.857737    2.375795
      2          8           0        1.084183    2.347141    1.883317
      3          8           0        2.863579    1.523096    4.057589
      4          8           0        3.937036    2.755196    1.571915
      5          1           0        0.946261    3.230200    1.502528
      6          1           0        3.738180    1.460319    4.454554
      7          1           0        4.738699    2.338631    1.242186
      8         13           0        0.142979    0.990729    0.778529
      9         17           0        2.220455   -0.075767    1.282198
     10         17           0       -1.407189    0.670518    2.271636
     11         17           0       -0.298335   -0.706960   -0.566524
     12         17           0       -0.135767    2.554460   -0.785653
 ---------------------------------------------------------------------
                    Distance matrix (angstroms):
                    1          2          3          4          5
     1  Al   0.000000
     2  O    1.781792   0.000000
     3  O    1.720343   2.927927   0.000000
     4  O    1.708903   2.898663   2.974719   0.000000
     5  H    2.410530   0.971503   3.621967   3.029056   0.000000
     6  H    2.346366   3.800185   0.962522   3.166363   4.431901
     7  H    2.360244   3.710337   3.479607   0.961723   3.904517
     8  Al   3.157611   1.986524   4.293869   4.258835   2.486900
     9  Cl   2.277959   2.742797   3.266920   3.323393   3.549864
    10  Cl   4.300752   3.028001   4.707014   5.778948   3.561211
    11  Cl   4.937237   4.152181   6.029367   5.873484   4.618574
    12  Cl   4.320295   2.941880   5.789367   4.710217   2.619767
                    6          7          8          9         10
     6  H    0.000000
     7  H    3.477323   0.000000
     8  Al   5.163249   4.811700   0.000000
     9  Cl   3.837563   3.488907   2.388933   0.000000
    10  Cl   5.644797   6.450915   2.175988   3.833501   0.000000
    11  Cl   6.797189   6.157821   2.210446   3.187551   3.343973
    12  Cl   6.607902   5.283855   2.229264   4.092173   3.809562
                   11         12
    11  Cl   0.000000
    12  Cl   3.272813   0.000000
 Stoichiometry    Al2Cl4H3O3(1-)
 Framework group  C1[X(Al2Cl4H3O3)]
 Deg. of freedom    30
 Full point group                 C1      NOp   1
 RotChk:  IX=3 Diff= 3.50D-15
 Largest Abelian subgroup         C1      NOp   1
 Largest concise Abelian subgroup C1      NOp   1
                         Standard orientation:                         
 ---------------------------------------------------------------------
 Center     Atomic      Atomic             Coordinates (Angstroms)
 Number     Number       Type             X           Y           Z
 ---------------------------------------------------------------------
      1         13           0        2.231827   -0.059794   -0.092881
      2          8           0        0.785228   -0.215293   -1.121451
      3          8           0        3.142406    1.366303   -0.403803
      4          8           0        3.024184   -1.555820    0.140418
      5          1           0        0.712739   -0.970874   -1.727801
      6          1           0        4.038420    1.437047   -0.059416
      7          1           0        3.380785   -1.810119    0.996618
      8         13           0       -0.924590    0.015184   -0.136728
      9         17           0        0.721980    0.378686    1.555511
     10         17           0       -1.467153    1.804372   -1.249991
     11         17           0       -2.452537    0.107777    1.457912
     12         17           0       -1.551735   -1.987167   -0.889656
 ---------------------------------------------------------------------
 Rotational constants (GHZ):           0.8393192           0.4369676           0.4140312
 Leave Link  202 at Wed Jun 24 01:05:07 2026, MaxMem=  1879048192 cpu:               0.0 elap:               0.0
 (Enter /CH/g16/l601.exe)
 Copying SCF densities to generalized density rwf, IOpCl= 0 IROHF=0.

 **********************************************************************

            Population analysis using the SCF Density.

 **********************************************************************

 Orbital symmetries:
       Occupied  (A) (A) (A) (A) (A) (A) (A) (A) (A) (A) (A) (A)
                 (A) (A) (A) (A) (A) (A) (A) (A) (A) (A) (A) (A)
                 (A) (A) (A) (A) (A) (A) (A) (A) (A) (A) (A) (A)
                 (A) (A) (A) (A) (A) (A) (A) (A) (A) (A) (A) (A)
                 (A) (A) (A) (A) (A) (A) (A) (A) (A) (A) (A) (A)
                 (A)
       Virtual   (A) (A) (A) (A) (A) (A) (A) (A) (A) (A) (A) (A)
                 (A) (A) (A) (A) (A) (A) (A) (A) (A) (A) (A) (A)
                 (A) (A) (A) (A) (A) (A) (A) (A) (A) (A) (A) (A)
                 (A) (A) (A) (A) (A) (A) (A) (A) (A) (A) (A) (A)
                 (A) (A) (A) (A) (A) (A) (A) (A) (A) (A) (A) (A)
                 (A) (A) (A) (A) (A) (A) (A) (A) (A) (A) (A) (A)
                 (A) (A) (A) (A) (A) (A) (A) (A) (A) (A) (A) (A)
                 (A) (A) (A) (A) (A) (A) (A) (A) (A) (A) (A) (A)
                 (A) (A) (A) (A) (A) (A) (A) (A)
 The electronic state is 1-A.
 Alpha  occ. eigenvalues -- -101.47114-101.42353-101.42313-101.40533 -56.06388
 Alpha  occ. eigenvalues --  -56.01513 -19.12957 -19.07991 -19.07660  -9.42664
 Alpha  occ. eigenvalues --   -9.37801  -9.37796  -9.36026  -7.19015  -7.18948
 Alpha  occ. eigenvalues --   -7.18708  -7.14298  -7.14291  -7.13944  -7.13943
 Alpha  occ. eigenvalues --   -7.13889  -7.13859  -7.12531  -7.12138  -7.12122
 Alpha  occ. eigenvalues --   -4.15002  -4.11282  -2.70785  -2.70644  -2.70504
 Alpha  occ. eigenvalues --   -2.67121  -2.66852  -2.66702  -0.97558  -0.92109
 Alpha  occ. eigenvalues --   -0.91164  -0.79305  -0.74681  -0.73660  -0.71930
 Alpha  occ. eigenvalues --   -0.51361  -0.47062  -0.44583  -0.41876  -0.37525
 Alpha  occ. eigenvalues --   -0.36929  -0.34445  -0.32868  -0.31947  -0.31012
 Alpha  occ. eigenvalues --   -0.30749  -0.29336  -0.28710  -0.27850  -0.27423
 Alpha  occ. eigenvalues --   -0.26873  -0.26725  -0.25947  -0.25713  -0.23766
 Alpha  occ. eigenvalues --   -0.23323
 Alpha virt. eigenvalues --    0.02989   0.07731   0.08675   0.10358   0.11606
 Alpha virt. eigenvalues --    0.12424   0.12933   0.15989   0.17219   0.18915
 Alpha virt. eigenvalues --    0.20151   0.21518   0.23559   0.32182   0.32914
 Alpha virt. eigenvalues --    0.33737   0.37179   0.40592   0.40982   0.42488
 Alpha virt. eigenvalues --    0.43192   0.48514   0.48848   0.51392   0.57559
 Alpha virt. eigenvalues --    0.58976   0.60811   0.65752   0.67178   0.68604
 Alpha virt. eigenvalues --    0.69663   0.70812   0.72102   0.76003   0.78907
 Alpha virt. eigenvalues --    0.80652   0.82090   0.82600   0.83348   0.83660
 Alpha virt. eigenvalues --    0.84126   0.84347   0.84641   0.85190   0.85455
 Alpha virt. eigenvalues --    0.85813   0.86232   0.86757   0.87394   0.88566
 Alpha virt. eigenvalues --    0.89482   0.92108   0.92991   0.94269   0.96084
 Alpha virt. eigenvalues --    0.96915   1.01004   1.02373   1.04851   1.05523
 Alpha virt. eigenvalues --    1.06587   1.06760   1.07884   1.09132   1.11402
 Alpha virt. eigenvalues --    1.13872   1.15506   1.16724   1.18315   1.19670
 Alpha virt. eigenvalues --    1.27150   1.29539   1.31324   1.32560   1.33287
 Alpha virt. eigenvalues --    1.36942   1.38724   1.40100   1.42805   1.45572
 Alpha virt. eigenvalues --    1.51780   1.54971   1.69917   1.75245   1.81141
 Alpha virt. eigenvalues --    1.86117   2.23397   2.26660   2.26913   2.72528
 Alpha virt. eigenvalues --    2.75824   2.80029   2.82843   2.88934   2.94015
 Alpha virt. eigenvalues --    2.96534   3.00462   3.00787   3.03089   3.19533
 Alpha virt. eigenvalues --    3.20132   3.70036   3.73087   3.74516
          Condensed to atoms (all electrons):
               1          2          3          4          5          6
     1  Al  11.117264   0.266008   0.432887   0.443878  -0.018858  -0.037950
     2  O    0.266008   7.846948  -0.003290  -0.005793   0.309097   0.000401
     3  O    0.432887  -0.003290   7.745241  -0.008289  -0.000430   0.324704
     4  O    0.443878  -0.005793  -0.008289   7.744012  -0.001578  -0.002446
     5  H   -0.018858   0.309097  -0.000430  -0.001578   0.466634  -0.000030
     6  H   -0.037950   0.000401   0.324704  -0.002446  -0.000030   0.526417
     7  H   -0.033379   0.000191  -0.000412   0.324303  -0.000156  -0.000587
     8  Al  -0.102098   0.177416  -0.004230  -0.006221  -0.004542  -0.000426
     9  Cl   0.166829  -0.049278  -0.009121  -0.007822   0.001821   0.000248
    10  Cl   0.005938  -0.017641  -0.000007  -0.000000  -0.000850  -0.000004
    11  Cl  -0.002863  -0.000426  -0.000000  -0.000000   0.000128  -0.000000
    12  Cl   0.002540  -0.025013  -0.000000  -0.000008   0.022873   0.000000
               7          8          9         10         11         12
     1  Al  -0.033379  -0.102098   0.166829   0.005938  -0.002863   0.002540
     2  O    0.000191   0.177416  -0.049278  -0.017641  -0.000426  -0.025013
     3  O   -0.000412  -0.004230  -0.009121  -0.000007  -0.000000  -0.000000
     4  O    0.324303  -0.006221  -0.007822  -0.000000  -0.000000  -0.000008
     5  H   -0.000156  -0.004542   0.001821  -0.000850   0.000128   0.022873
     6  H   -0.000587  -0.000426   0.000248  -0.000004  -0.000000   0.000000
     7  H    0.519791   0.000160   0.000978   0.000000   0.000001  -0.000010
     8  Al   0.000160  11.073862   0.165769   0.348857   0.327209   0.298041
     9  Cl   0.000978   0.165769  17.126244  -0.005272  -0.027104  -0.002582
    10  Cl   0.000000   0.348857  -0.005272  17.095308  -0.025117  -0.007126
    11  Cl   0.000001   0.327209  -0.027104  -0.025117  17.199707  -0.028792
    12  Cl  -0.000010   0.298041  -0.002582  -0.007126  -0.028792  17.177524
 Mulliken charges:
               1
     1  Al   0.759805
     2  O   -0.498620
     3  O   -0.477052
     4  O   -0.480035
     5  H    0.225892
     6  H    0.189672
     7  H    0.189121
     8  Al   0.726204
     9  Cl  -0.360709
    10  Cl  -0.394086
    11  Cl  -0.442743
    12  Cl  -0.437447
 Sum of Mulliken charges =  -1.00000
 Mulliken charges with hydrogens summed into heavy atoms:
               1
     1  Al   0.759805
     2  O   -0.272728
     3  O   -0.287380
     4  O   -0.290914
     8  Al   0.726204
     9  Cl  -0.360709
    10  Cl  -0.394086
    11  Cl  -0.442743
    12  Cl  -0.437447
 Electronic spatial extent (au):  <R**2>=           2909.5670
 Charge=             -1.0000 electrons
 Dipole moment (field-independent basis, Debye):
    X=              7.5034    Y=             -1.5199    Z=              0.8941  Tot=              7.7078
 Quadrupole moment (field-independent basis, Debye-Ang):
   XX=           -108.3725   YY=           -108.5360   ZZ=            -98.4125
   XY=             -1.3950   XZ=              8.1410   YZ=              1.4951
 Traceless Quadrupole moment (field-independent basis, Debye-Ang):
   XX=             -3.2655   YY=             -3.4290   ZZ=              6.6945
   XY=             -1.3950   XZ=              8.1410   YZ=              1.4951
 Octapole moment (field-independent basis, Debye-Ang**2):
  XXX=             88.6478  YYY=             -0.0284  ZZZ=             -9.0654  XYY=             14.1866
  XXY=              6.1362  XXZ=             19.1647  XZZ=             27.7684  YZZ=            -12.9647
  YYZ=             15.8527  XYZ=             -1.7009
 Hexadecapole moment (field-independent basis, Debye-Ang**3):
 XXXX=          -1986.9541 YYYY=           -890.9041 ZZZZ=           -700.8491 XXXY=             47.7848
 XXXZ=            125.2105 YYYX=            -12.7189 YYYZ=             -5.5322 ZZZX=              6.4171
 ZZZY=              7.8718 XXYY=           -530.5133 XXZZ=           -473.8944 YYZZ=           -259.5332
 XXYZ=            -14.9304 YYXZ=              8.6481 ZZXY=            -18.5996
 N-N= 1.081149142597D+03 E-N=-8.254227157661D+03  KE= 2.545389406244D+03
 No NMR shielding tensors so no spin-rotation constants.
 Leave Link  601 at Wed Jun 24 01:05:07 2026, MaxMem=  1879048192 cpu:               0.3 elap:               0.1
 (Enter /CH/g16/l9999.exe)


 IF YOU PERCEIVE THAT THERE ARE FOUR POSSIBLE WAYS IN
 WHICH A PROCEDURE CAN GO WRONG AND CIRCUMVENT THESE, 
 THEN A FIFTH WAY WILL DEVELOP.

                              -- MURPHY'S TWELFTH LAW
 Error termination request processed by link 9999.
 Error termination via Lnk1e in /CH/g16/l9999.exe at Wed Jun 24 01:05:07 2026.
 Job cpu time:       0 days  0 hours 32 minutes 38.4 seconds.
 Elapsed time:       0 days  0 hours  5 minutes 20.9 seconds.
 File lengths (MBytes):  RWF=    157 Int=      0 D2E=      0 Chk=      6 Scr=      1
Error: segmentation violation
   rax 0x0000000000000000, rbx 0x0000000041c06dd8, rcx 0x00001524484bc52b
   rdx 0x0000000000000000, rsp 0x00007ffd15b70fa8, rbp 0x0000000002f85e30
   rsi 0x000000000000000b, rdi 0x00000000002c1c96, r8  0x0000000380001000
   r9  0x0000000066430014, r10 0x00001524491aad70, r11 0x0000000000000202
   r12 0x00007ffd15b71060, r13 0x00007ffd15b710d8, r14 0x00007ffd15b710d0
   r15 0x0000000041c06df8
  /lib64/libpthread.so.0(+0x12990) [0x152448c04990]
  /lib64/libc.so.6(kill+0xb) [0x1524484bc52b]
