 Entering Gaussian System, Link 0=/CH/g16/g16
 Initial command:
 /CH/g16/l1.exe "/tmp/g16tz_AlOH3_cpxtz_2947290/Gau-2948862.inp" -scrdir="/tmp/g16tz_AlOH3_cpxtz_2947290/"
 Default is to use a total of  96 processors:
                               96 via shared-memory
                                1 via Linda
 Entering Link 1 = /CH/g16/l1.exe PID=   2948863.
  
 Copyright (c) 1988-2021, Gaussian, Inc.  All Rights Reserved.
  
 This is part of the Gaussian(R) 16 program.  It is based on
 the Gaussian(R) 09 system (copyright 2009, Gaussian, Inc.),
 the Gaussian(R) 03 system (copyright 2003, Gaussian, Inc.),
 the Gaussian(R) 98 system (copyright 1998, Gaussian, Inc.),
 the Gaussian(R) 94 system (copyright 1995, Gaussian, Inc.),
 the Gaussian 92(TM) system (copyright 1992, Gaussian, Inc.),
 the Gaussian 90(TM) system (copyright 1990, Gaussian, Inc.),
 the Gaussian 88(TM) system (copyright 1988, Gaussian, Inc.),
 the Gaussian 86(TM) system (copyright 1986, Carnegie Mellon
 University), and the Gaussian 82(TM) system (copyright 1983,
 Carnegie Mellon University). Gaussian is a federally registered
 trademark of Gaussian, Inc.
  
 This software contains proprietary and confidential information,
 including trade secrets, belonging to Gaussian, Inc.
  
 This software is provided under written license and may be
 used, copied, transmitted, or stored only in accord with that
 written license.
  
 The following legend is applicable only to US Government
 contracts under FAR:
  
                    RESTRICTED RIGHTS LEGEND
  
 Use, reproduction and disclosure by the US Government is
 subject to restrictions as set forth in subparagraphs (a)
 and (c) of the Commercial Computer Software - Restricted
 Rights clause in FAR 52.227-19.
  
 Gaussian, Inc.
 340 Quinnipiac St., Bldg. 40, Wallingford CT 06492
  
  
 ---------------------------------------------------------------
 Warning -- This program may not be used in any manner that
 competes with the business of Gaussian, Inc. or will provide
 assistance to any competitor of Gaussian, Inc.  The licensee
 of this program is prohibited from giving any competitor of
 Gaussian, Inc. access to this program.  By using this program,
 the user acknowledges that Gaussian, Inc. is engaged in the
 business of creating and licensing software in the field of
 computational chemistry and represents and warrants to the
 licensee that it is not a competitor of Gaussian, Inc. and that
 it will not use this program in any manner prohibited above.
 ---------------------------------------------------------------
  

 Cite this work as:
 Gaussian 16, Revision C.02,
 M. J. Frisch, G. W. Trucks, H. B. Schlegel, G. E. Scuseria, 
 M. A. Robb, J. R. Cheeseman, G. Scalmani, V. Barone, 
 G. A. Petersson, H. Nakatsuji, X. Li, M. Caricato, A. V. Marenich, 
 J. Bloino, B. G. Janesko, R. Gomperts, B. Mennucci, H. P. Hratchian, 
 J. V. Ortiz, A. F. Izmaylov, J. L. Sonnenberg, D. Williams-Young, 
 F. Ding, F. Lipparini, F. Egidi, J. Goings, B. Peng, A. Petrone, 
 T. Henderson, D. Ranasinghe, V. G. Zakrzewski, J. Gao, N. Rega, 
 G. Zheng, W. Liang, M. Hada, M. Ehara, K. Toyota, R. Fukuda, 
 J. Hasegawa, M. Ishida, T. Nakajima, Y. Honda, O. Kitao, H. Nakai, 
 T. Vreven, K. Throssell, J. A. Montgomery, Jr., J. E. Peralta, 
 F. Ogliaro, M. J. Bearpark, J. J. Heyd, E. N. Brothers, K. N. Kudin, 
 V. N. Staroverov, T. A. Keith, R. Kobayashi, J. Normand, 
 K. Raghavachari, A. P. Rendell, J. C. Burant, S. S. Iyengar, 
 J. Tomasi, M. Cossi, J. M. Millam, M. Klene, C. Adamo, R. Cammi, 
 J. W. Ochterski, R. L. Martin, K. Morokuma, O. Farkas, 
 J. B. Foresman, and D. J. Fox, Gaussian, Inc., Wallingford CT, 2019.
 
 ******************************************
 Gaussian 16:  ES64L-G16RevC.02  7-Dec-2021
                24-Jun-2026 
 ******************************************
 %chk=AlOH3_cpxtz.chk
 %nprocshared=8
 Will use up to    8 processors via shared memory.
 %mem=14GB
 ----------------------------------------------------------------------
 #p B3LYP/def2TZVP EmpiricalDispersion=GD3BJ SCRF=(SMD,Solvent=Tetrahyd
 rofuran) int=ultrafine
 ----------------------------------------------------------------------
 1/38=1,172=1/1;
 2/12=2,17=6,18=5,40=1/2;
 3/5=44,7=101,11=2,25=1,30=1,70=32201,72=20,74=-5,75=-5,124=41/1,2,3;
 4//1;
 5/5=2,38=5,53=20/2;
 6/7=2,8=2,9=2,10=2,28=1/1;
 99/5=1,9=1/99;
 Leave Link    1 at Wed Jun 24 01:17:44 2026, MaxMem=  1879048192 cpu:               1.3 elap:               0.0
 (Enter /CH/g16/l101.exe)
 -----------
 AlOH3_cpxtz
 -----------
 Symbolic Z-matrix:
 Charge = -1 Multiplicity = 1
 Al                    2.23183  -0.05979  -0.09288 
 O                     0.78523  -0.21529  -1.12145 
 O                     3.14241   1.3663   -0.4038 
 O                     3.02418  -1.55582   0.14042 
 H                     0.71274  -0.97087  -1.7278 
 H                     4.03842   1.43705  -0.05942 
 H                     3.38078  -1.81012   0.99662 
 Al                   -0.92459   0.01518  -0.13673 
 Cl                    0.72198   0.37869   1.55551 
 Cl                   -1.46715   1.80437  -1.24999 
 Cl                   -2.45254   0.10778   1.45791 
 Cl                   -1.55174  -1.98717  -0.88966 
 
 ITRead=  0  0  0  0  0  0  0  0  0  0  0  0
 MicOpt= -1 -1 -1 -1 -1 -1 -1 -1 -1 -1 -1 -1
 NAtoms=     12 NQM=       12 NQMF=       0 NMMI=      0 NMMIF=      0
                NMic=       0 NMicF=      0.
                    Isotopes and Nuclear Properties:
 (Nuclear quadrupole moments (NQMom) in fm**2, nuclear magnetic moments (NMagM)
  in nuclear magnetons)

  Atom         1           2           3           4           5           6           7           8           9          10
 IAtWgt=          27          16          16          16           1           1           1          27          35          35
 AtmWgt=  26.9815413  15.9949146  15.9949146  15.9949146   1.0078250   1.0078250   1.0078250  26.9815413  34.9688527  34.9688527
 NucSpn=           5           0           0           0           1           1           1           5           3           3
 AtZEff=  -0.0000000  -0.0000000  -0.0000000  -0.0000000  -0.0000000  -0.0000000  -0.0000000  -0.0000000  -0.0000000  -0.0000000
 NQMom=   14.6600000   0.0000000   0.0000000   0.0000000   0.0000000   0.0000000   0.0000000  14.6600000  -8.1650000  -8.1650000
 NMagM=    3.6415040   0.0000000   0.0000000   0.0000000   2.7928460   2.7928460   2.7928460   3.6415040   0.8218740   0.8218740
 AtZNuc=  13.0000000   8.0000000   8.0000000   8.0000000   1.0000000   1.0000000   1.0000000  13.0000000  17.0000000  17.0000000

  Atom        11          12
 IAtWgt=          35          35
 AtmWgt=  34.9688527  34.9688527
 NucSpn=           3           3
 AtZEff=  -0.0000000  -0.0000000
 NQMom=   -8.1650000  -8.1650000
 NMagM=    0.8218740   0.8218740
 AtZNuc=  17.0000000  17.0000000
 Leave Link  101 at Wed Jun 24 01:17:44 2026, MaxMem=  1879048192 cpu:               0.1 elap:               0.1
 (Enter /CH/g16/l202.exe)
                          Input orientation:                          
 ---------------------------------------------------------------------
 Center     Atomic      Atomic             Coordinates (Angstroms)
 Number     Number       Type             X           Y           Z
 ---------------------------------------------------------------------
      1         13           0        2.231830   -0.059790   -0.092880
      2          8           0        0.785230   -0.215290   -1.121450
      3          8           0        3.142410    1.366300   -0.403800
      4          8           0        3.024180   -1.555820    0.140420
      5          1           0        0.712740   -0.970870   -1.727800
      6          1           0        4.038420    1.437050   -0.059420
      7          1           0        3.380780   -1.810120    0.996620
      8         13           0       -0.924590    0.015180   -0.136730
      9         17           0        0.721980    0.378690    1.555510
     10         17           0       -1.467150    1.804370   -1.249990
     11         17           0       -2.452540    0.107780    1.457910
     12         17           0       -1.551740   -1.987170   -0.889660
 ---------------------------------------------------------------------
                    Distance matrix (angstroms):
                    1          2          3          4          5
     1  Al   0.000000
     2  O    1.781793   0.000000
     3  O    1.720337   2.927925   0.000000
     4  O    1.708904   2.898661   2.974717   0.000000
     5  H    2.410532   0.971502   3.621966   3.029054   0.000000
     6  H    2.346363   3.800182   0.962516   3.166369   4.431898
     7  H    2.360244   3.710335   3.479603   0.961723   3.904516
     8  Al   3.157615   1.986523   4.293872   4.258831   2.486895
     9  Cl   2.277960   2.742796   3.266918   3.323392   3.549862
    10  Cl   4.300750   3.027997   4.707015   5.778941   3.561205
    11  Cl   4.937241   4.152183   6.029370   5.873483   4.618575
    12  Cl   4.320307   2.941890   5.789375   4.710220   2.619774
                    6          7          8          9         10
     6  H    0.000000
     7  H    3.477330   0.000000
     8  Al   5.163251   4.811695   0.000000
     9  Cl   3.837564   3.488906   2.388935   0.000000
    10  Cl   5.644792   6.450908   2.175987   3.833495   0.000000
    11  Cl   6.797191   6.157820   2.210449   3.187553   3.343970
    12  Cl   6.607910   5.283858   2.229266   4.092182   3.809563
                   11         12
    11  Cl   0.000000
    12  Cl   3.272819   0.000000
 Stoichiometry    Al2Cl4H3O3(1-)
 Framework group  C1[X(Al2Cl4H3O3)]
 Deg. of freedom    30
 Full point group                 C1      NOp   1
 Largest Abelian subgroup         C1      NOp   1
 Largest concise Abelian subgroup C1      NOp   1
                         Standard orientation:                         
 ---------------------------------------------------------------------
 Center     Atomic      Atomic             Coordinates (Angstroms)
 Number     Number       Type             X           Y           Z
 ---------------------------------------------------------------------
      1         13           0       -2.231830    0.059794   -0.092879
      2          8           0       -0.785230    0.215292   -1.121449
      3          8           0       -3.142413   -1.366294   -0.403799
      4          8           0       -3.024177    1.555826    0.140421
      5          1           0       -0.712738    0.970872   -1.727799
      6          1           0       -4.038423   -1.437042   -0.059419
      7          1           0       -3.380777    1.810126    0.996621
      8         13           0        0.924590   -0.015181   -0.136729
      9         17           0       -0.721981   -0.378688    1.555511
     10         17           0        1.467146   -1.804372   -1.249989
     11         17           0        2.452540   -0.107784    1.457911
     12         17           0        1.551743    1.987168   -0.889659
 ---------------------------------------------------------------------
 Rotational constants (GHZ):           0.8393193           0.4369672           0.4140308
 Leave Link  202 at Wed Jun 24 01:17:44 2026, MaxMem=  1879048192 cpu:               0.0 elap:               0.0
 (Enter /CH/g16/l301.exe)
 Standard basis: def2TZVP (5D, 7F)
 Ernie: Thresh=  0.10000D-02 Tol=  0.10000D-05 Strict=F.
 There are   378 symmetry adapted cartesian basis functions of A   symmetry.
 There are   333 symmetry adapted basis functions of A   symmetry.
   333 basis functions,   591 primitive gaussians,   378 cartesian basis functions
    61 alpha electrons       61 beta electrons
       nuclear repulsion energy      1081.1863340624 Hartrees.
 IExCor=  402 DFT=T Ex+Corr=B3LYP ExCW=0 ScaHFX=  0.200000
 ScaDFX=  0.800000  0.720000  1.000000  0.810000 ScalE2=  1.000000  1.000000
 IRadAn=      5 IRanWt=     -1 IRanGd=            0 ICorTp=0 IEmpDi=141
 NAtoms=   12 NActive=   12 NUniq=   12 SFac= 1.00D+00 NAtFMM=   60 NAOKFM=F Big=F
 Integral buffers will be    131072 words long.
 Raffenetti 2 integral format.
 Two-electron integral symmetry is turned on.
 R6Disp:  Grimme-D3(BJ) Dispersion energy=       -0.0323975283 Hartrees.
 Nuclear repulsion after empirical dispersion term =     1081.1539365341 Hartrees.
 ------------------------------------------------------------------------------
 Polarizable Continuum Model (PCM)
 =================================
 Model                : PCM.
 Atomic radii         : SMD-Coulomb.
 Polarization charges : Total charges.
 Charge compensation  : None.
 Solution method      : On-the-fly selection.
 Cavity type          : VdW (van der Waals Surface) (Alpha=1.000).
 Cavity algorithm     : GePol (No added spheres)
                        Default sphere list used, NSphG=   12.
                        Lebedev-Laikov grids with approx.  5.0 points / Ang**2.
                        Smoothing algorithm: York/Karplus (Gamma=1.0000).
                        Polarization charges: spherical gaussians, with
                                              point-specific exponents (IZeta= 3).
                        Self-potential: point-specific (ISelfS= 7).
                        Self-field    : sphere-specific E.n sum rule (ISelfD= 2).
 Solvent              : TetraHydroFuran, Eps=   7.425700 Eps(inf)=   1.974025
 ------------------------------------------------------------------------------
 Spheres list:
 ISph  on   Nord     Re0    Alpha      Xe            Ye            Ze
    1  Al      1    2.3000  1.000     -2.231830      0.059794     -0.092879
    2   O      2    2.2940  1.000     -0.785230      0.215292     -1.121449
    3   O      3    2.2940  1.000     -3.142413     -1.366294     -0.403799
    4   O      4    2.2940  1.000     -3.024177      1.555826      0.140421
    5   H      5    1.2000  1.000     -0.712738      0.970872     -1.727799
    6   H      6    1.2000  1.000     -4.038423     -1.437042     -0.059419
    7   H      7    1.2000  1.000     -3.380777      1.810126      0.996621
    8  Al      8    2.3000  1.000      0.924590     -0.015181     -0.136729
    9  Cl      9    2.3800  1.000     -0.721981     -0.378688      1.555511
   10  Cl     10    2.3800  1.000      1.467146     -1.804372     -1.249989
   11  Cl     11    2.3800  1.000      2.452540     -0.107784      1.457911
   12  Cl     12    2.3800  1.000      1.551743      1.987168     -0.889659
 ------------------------------------------------------------------------------
 GePol: Number of generator spheres                  =      12
 GePol: Total number of spheres                      =      12
 GePol: Number of exposed spheres                    =       9 ( 75.00%)
 GePol: Number of points                             =    1786
 GePol: Average weight of points                     =       0.15
 GePol: Minimum weight of points                     =   0.43D-06
 GePol: Maximum weight of points                     =    0.18138
 GePol: Number of points with low weight             =      20
 GePol: Fraction of low-weight points (<1% of avg)   =       1.12%
 GePol: Cavity surface area                          =    263.357 Ang**2
 GePol: Cavity volume                                =    293.217 Ang**3
 ------------------------------------------------------------------------------
 Atomic radii for non-electrostatic terms: SMD-CDS.
 ------------------------------------------------------------------------------
 PCM non-electrostatic energy =        -0.0049956413 Hartrees.
 Nuclear repulsion after PCM non-electrostatic terms =     1081.1489408927 Hartrees.
 Leave Link  301 at Wed Jun 24 01:17:44 2026, MaxMem=  1879048192 cpu:               0.0 elap:               0.0
 (Enter /CH/g16/l302.exe)
 NPDir=0 NMtPBC=     1 NCelOv=     1 NCel=       1 NClECP=     1 NCelD=      1
         NCelK=      1 NCelE2=     1 NClLst=     1 CellRange=     0.0.
 One-electron integrals computed using PRISM.
 One-electron integral symmetry used in STVInt
   1 Symmetry operations used in ECPInt.
 ECPInt:  NShTT=    7626 NPrTT=   29211 LenC2=    6868 LenP2D=   18144.
 LDataN:  DoStor=T MaxTD1= 6 Len=  172
 NBasis=   333 RedAO= T EigKep=  1.83D-03  NBF=   333
 NBsUse=   333 1.00D-06 EigRej= -1.00D+00 NBFU=   333
 Precomputing XC quadrature grid using
 IXCGrd= 4 IRadAn=           5 IRanWt=          -1 IRanGd=           0 AccXCQ= 0.00D+00.
 Generated NRdTot=       0 NPtTot=           0 NUsed=           0 NTot=          32
 NSgBfM=   371   371   371   371   371 MxSgAt=    12 MxSgA2=    12.
 Leave Link  302 at Wed Jun 24 01:17:45 2026, MaxMem=  1879048192 cpu:               0.7 elap:               0.2
 (Enter /CH/g16/l303.exe)
 DipDrv:  MaxL=1.
 Leave Link  303 at Wed Jun 24 01:17:45 2026, MaxMem=  1879048192 cpu:               0.1 elap:               0.0
 (Enter /CH/g16/l401.exe)
 ExpMin= 5.79D-02 ExpMax= 6.95D+04 ExpMxC= 2.37D+03 IAcc=3 IRadAn=         5 AccDes= 0.00D+00
 Harris functional with IExCor=  402 and IRadAn=       5 diagonalized for initial guess.
 HarFok:  IExCor=  402 AccDes= 0.00D+00 IRadAn=         5 IDoV= 1 UseB2=F ITyADJ=14
 ICtDFT=  3500011 ScaDFX=  1.000000  1.000000  1.000000  1.000000
 FoFCou: FMM=F IPFlag=           0 FMFlag=      100000 FMFlg1=           0
         NFxFlg=           0 DoJE=T BraDBF=F KetDBF=T FulRan=T
         wScrn=  0.000000 ICntrl=       500 IOpCl=  0 I1Cent=   200000004 NGrid=           0
         NMat0=    1 NMatS0=      1 NMatT0=    0 NMatD0=    1 NMtDS0=    0 NMtDT0=    0
 Petite list used in FoFCou.
 Harris En= -2553.89126616598    
 JPrj=0 DoOrth=F DoCkMO=F.
 Leave Link  401 at Wed Jun 24 01:17:45 2026, MaxMem=  1879048192 cpu:               3.3 elap:               0.5
 (Enter /CH/g16/l502.exe)
 Keep R1 ints in memory in canonical form, NReq=1573541214.
 FoFCou: FMM=F IPFlag=           0 FMFlag=           0 FMFlg1=           0
         NFxFlg=           0 DoJE=F BraDBF=F KetDBF=F FulRan=T
         wScrn=  0.000000 ICntrl=       600 IOpCl=  0 I1Cent=           0 NGrid=           0
         NMat0=    1 NMatS0=  55611 NMatT0=    0 NMatD0=    1 NMtDS0=    0 NMtDT0=    0
 Symmetry not used in FoFCou.
 Two-electron integral symmetry not used.
 Closed shell SCF:
 Using DIIS extrapolation, IDIIS=  1040.
 NGot=  1879048192 LenX=   332436372 LenY=   332293047
 Requested convergence on RMS density matrix=1.00D-08 within 128 cycles.
 Requested convergence on MAX density matrix=1.00D-06.
 Requested convergence on             energy=1.00D-06.
 No special actions if energy rises.

 Cycle   1  Pass 1  IDiag  1:
 Inv3:  Mode=1 IEnd=     9569388.
 Iteration    1 A*A^-1 deviation from unit magnitude is 3.11D-15 for   1445.
 Iteration    1 A*A^-1 deviation from orthogonality  is 1.63D-15 for    973    757.
 Iteration    1 A^-1*A deviation from unit magnitude is 2.89D-15 for   1509.
 Iteration    1 A^-1*A deviation from orthogonality  is 1.10D-15 for    927    740.
 E= -2553.75601816653    
 DIIS: error= 4.08D-02 at cycle   1 NSaved=   1.
 NSaved= 1 IEnMin= 1 EnMin= -2553.75601816653     IErMin= 1 ErrMin= 4.08D-02
 ErrMax= 4.08D-02  0.00D+00 EMaxC= 1.00D-01 BMatC= 5.99D-01 BMatP= 5.99D-01
 IDIUse=3 WtCom= 5.92D-01 WtEn= 4.08D-01
 Coeff-Com:  0.100D+01
 Coeff-En:   0.100D+01
 Coeff:      0.100D+01
 Gap=     0.296 Goal=   None    Shift=    0.000
 GapD=    0.296 DampG=1.000 DampE=0.500 DampFc=0.5000 IDamp=-1.
 Damping current iteration by 5.00D-01
 RMSDP=3.99D-03 MaxDP=2.70D-01              OVMax= 3.22D-01

 Cycle   2  Pass 1  IDiag  1:
 E= -2553.79860127608     Delta-E=       -0.042583109554 Rises=F Damp=T
 DIIS: error= 1.56D-02 at cycle   2 NSaved=   2.
 NSaved= 2 IEnMin= 2 EnMin= -2553.79860127608     IErMin= 2 ErrMin= 1.56D-02
 ErrMax= 1.56D-02  0.00D+00 EMaxC= 1.00D-01 BMatC= 9.69D-02 BMatP= 5.99D-01
 IDIUse=3 WtCom= 8.44D-01 WtEn= 1.56D-01
 Coeff-Com:  0.240D+00 0.760D+00
 Coeff-En:   0.450D+00 0.550D+00
 Coeff:      0.272D+00 0.728D+00
 Gap=     0.301 Goal=   None    Shift=    0.000
 RMSDP=1.17D-03 MaxDP=1.11D-01 DE=-4.26D-02 OVMax= 1.90D-01

 Cycle   3  Pass 1  IDiag  1:
 E= -2554.10723699208     Delta-E=       -0.308635715995 Rises=F Damp=F
 DIIS: error= 3.91D-03 at cycle   3 NSaved=   3.
 NSaved= 3 IEnMin= 3 EnMin= -2554.10723699208     IErMin= 3 ErrMin= 3.91D-03
 ErrMax= 3.91D-03  0.00D+00 EMaxC= 1.00D-01 BMatC= 6.26D-03 BMatP= 9.69D-02
 IDIUse=3 WtCom= 9.61D-01 WtEn= 3.91D-02
 Coeff-Com:  0.674D-02 0.178D+00 0.815D+00
 Coeff-En:   0.000D+00 0.000D+00 0.100D+01
 Coeff:      0.648D-02 0.171D+00 0.823D+00
 Gap=     0.271 Goal=   None    Shift=    0.000
 RMSDP=2.59D-04 MaxDP=1.57D-02 DE=-3.09D-01 OVMax= 1.49D-02

 Cycle   4  Pass 1  IDiag  1:
 E= -2554.11082815546     Delta-E=       -0.003591163383 Rises=F Damp=F
 DIIS: error= 1.56D-03 at cycle   4 NSaved=   4.
 NSaved= 4 IEnMin= 4 EnMin= -2554.11082815546     IErMin= 4 ErrMin= 1.56D-03
 ErrMax= 1.56D-03  0.00D+00 EMaxC= 1.00D-01 BMatC= 1.93D-03 BMatP= 6.26D-03
 IDIUse=3 WtCom= 9.84D-01 WtEn= 1.56D-02
 Coeff-Com: -0.346D-02 0.640D-01 0.409D+00 0.530D+00
 Coeff-En:   0.000D+00 0.000D+00 0.161D+00 0.839D+00
 Coeff:     -0.340D-02 0.630D-01 0.405D+00 0.535D+00
 Gap=     0.265 Goal=   None    Shift=    0.000
 RMSDP=9.98D-05 MaxDP=6.63D-03 DE=-3.59D-03 OVMax= 6.25D-03

 Cycle   5  Pass 1  IDiag  1:
 E= -2554.11203852196     Delta-E=       -0.001210366496 Rises=F Damp=F
 DIIS: error= 6.60D-04 at cycle   5 NSaved=   5.
 NSaved= 5 IEnMin= 5 EnMin= -2554.11203852196     IErMin= 5 ErrMin= 6.60D-04
 ErrMax= 6.60D-04  0.00D+00 EMaxC= 1.00D-01 BMatC= 1.29D-04 BMatP= 1.93D-03
 IDIUse=3 WtCom= 9.93D-01 WtEn= 6.60D-03
 Coeff-Com: -0.259D-02 0.181D-01 0.144D+00 0.252D+00 0.589D+00
 Coeff-En:   0.000D+00 0.000D+00 0.000D+00 0.000D+00 0.100D+01
 Coeff:     -0.257D-02 0.180D-01 0.143D+00 0.250D+00 0.591D+00
 Gap=     0.264 Goal=   None    Shift=    0.000
 RMSDP=2.36D-05 MaxDP=1.42D-03 DE=-1.21D-03 OVMax= 2.15D-03

 Cycle   6  Pass 1  IDiag  1:
 E= -2554.11210600455     Delta-E=       -0.000067482589 Rises=F Damp=F
 DIIS: error= 2.62D-04 at cycle   6 NSaved=   6.
 NSaved= 6 IEnMin= 6 EnMin= -2554.11210600455     IErMin= 6 ErrMin= 2.62D-04
 ErrMax= 2.62D-04  0.00D+00 EMaxC= 1.00D-01 BMatC= 2.60D-05 BMatP= 1.29D-04
 IDIUse=3 WtCom= 9.97D-01 WtEn= 2.62D-03
 Coeff-Com: -0.151D-02 0.162D-02 0.342D-01 0.687D-01 0.335D+00 0.562D+00
 Coeff-En:   0.000D+00 0.000D+00 0.000D+00 0.000D+00 0.181D+00 0.819D+00
 Coeff:     -0.151D-02 0.162D-02 0.341D-01 0.685D-01 0.335D+00 0.563D+00
 Gap=     0.265 Goal=   None    Shift=    0.000
 RMSDP=8.88D-06 MaxDP=5.09D-04 DE=-6.75D-05 OVMax= 6.39D-04

 Cycle   7  Pass 1  IDiag  1:
 E= -2554.11212242046     Delta-E=       -0.000016415913 Rises=F Damp=F
 DIIS: error= 2.38D-05 at cycle   7 NSaved=   7.
 NSaved= 7 IEnMin= 7 EnMin= -2554.11212242046     IErMin= 7 ErrMin= 2.38D-05
 ErrMax= 2.38D-05  0.00D+00 EMaxC= 1.00D-01 BMatC= 3.93D-07 BMatP= 2.60D-05
 IDIUse=1 WtCom= 1.00D+00 WtEn= 0.00D+00
 Coeff-Com: -0.303D-03-0.166D-03 0.719D-02 0.142D-01 0.103D+00 0.210D+00
 Coeff-Com:  0.665D+00
 Coeff:     -0.303D-03-0.166D-03 0.719D-02 0.142D-01 0.103D+00 0.210D+00
 Coeff:      0.665D+00
 Gap=     0.265 Goal=   None    Shift=    0.000
 RMSDP=2.00D-06 MaxDP=2.10D-04 DE=-1.64D-05 OVMax= 1.42D-04

 Cycle   8  Pass 1  IDiag  1:
 E= -2554.11212271991     Delta-E=       -0.000000299451 Rises=F Damp=F
 DIIS: error= 1.03D-05 at cycle   8 NSaved=   8.
 NSaved= 8 IEnMin= 8 EnMin= -2554.11212271991     IErMin= 8 ErrMin= 1.03D-05
 ErrMax= 1.03D-05  0.00D+00 EMaxC= 1.00D-01 BMatC= 6.33D-08 BMatP= 3.93D-07
 IDIUse=1 WtCom= 1.00D+00 WtEn= 0.00D+00
 Coeff-Com:  0.207D-04-0.215D-03 0.690D-03 0.124D-02 0.213D-01 0.487D-01
 Coeff-Com:  0.337D+00 0.591D+00
 Coeff:      0.207D-04-0.215D-03 0.690D-03 0.124D-02 0.213D-01 0.487D-01
 Coeff:      0.337D+00 0.591D+00
 Gap=     0.265 Goal=   None    Shift=    0.000
 RMSDP=6.83D-07 MaxDP=7.75D-05 DE=-2.99D-07 OVMax= 4.55D-05

 Cycle   9  Pass 1  IDiag  1:
 E= -2554.11212278136     Delta-E=       -0.000000061445 Rises=F Damp=F
 DIIS: error= 1.88D-06 at cycle   9 NSaved=   9.
 NSaved= 9 IEnMin= 9 EnMin= -2554.11212278136     IErMin= 9 ErrMin= 1.88D-06
 ErrMax= 1.88D-06  0.00D+00 EMaxC= 1.00D-01 BMatC= 3.27D-09 BMatP= 6.33D-08
 IDIUse=1 WtCom= 1.00D+00 WtEn= 0.00D+00
 Coeff-Com:  0.307D-04-0.626D-04-0.108D-03-0.202D-03 0.125D-02 0.284D-02
 Coeff-Com:  0.906D-01 0.250D+00 0.655D+00
 Coeff:      0.307D-04-0.626D-04-0.108D-03-0.202D-03 0.125D-02 0.284D-02
 Coeff:      0.906D-01 0.250D+00 0.655D+00
 Gap=     0.265 Goal=   None    Shift=    0.000
 RMSDP=1.61D-07 MaxDP=9.41D-06 DE=-6.14D-08 OVMax= 1.29D-05

 Cycle  10  Pass 1  IDiag  1:
 E= -2554.11212278346     Delta-E=       -0.000000002108 Rises=F Damp=F
 DIIS: error= 1.16D-06 at cycle  10 NSaved=  10.
 NSaved=10 IEnMin=10 EnMin= -2554.11212278346     IErMin=10 ErrMin= 1.16D-06
 ErrMax= 1.16D-06  0.00D+00 EMaxC= 1.00D-01 BMatC= 7.00D-10 BMatP= 3.27D-09
 IDIUse=1 WtCom= 1.00D+00 WtEn= 0.00D+00
 Coeff-Com:  0.158D-04-0.227D-04-0.124D-03-0.209D-03-0.703D-03-0.155D-02
 Coeff-Com:  0.315D-01 0.111D+00 0.397D+00 0.463D+00
 Coeff:      0.158D-04-0.227D-04-0.124D-03-0.209D-03-0.703D-03-0.155D-02
 Coeff:      0.315D-01 0.111D+00 0.397D+00 0.463D+00
 Gap=     0.265 Goal=   None    Shift=    0.000
 RMSDP=5.15D-08 MaxDP=2.88D-06 DE=-2.11D-09 OVMax= 4.86D-06

 Cycle  11  Pass 1  IDiag  1:
 E= -2554.11212278396     Delta-E=       -0.000000000491 Rises=F Damp=F
 DIIS: error= 1.99D-07 at cycle  11 NSaved=  11.
 NSaved=11 IEnMin=11 EnMin= -2554.11212278396     IErMin=11 ErrMin= 1.99D-07
 ErrMax= 1.99D-07  0.00D+00 EMaxC= 1.00D-01 BMatC= 2.53D-11 BMatP= 7.00D-10
 IDIUse=1 WtCom= 1.00D+00 WtEn= 0.00D+00
 Coeff-Com:  0.615D-06 0.140D-06-0.404D-04-0.589D-04-0.353D-03-0.681D-03
 Coeff-Com:  0.107D-02 0.136D-01 0.754D-01 0.166D+00 0.745D+00
 Coeff:      0.615D-06 0.140D-06-0.404D-04-0.589D-04-0.353D-03-0.681D-03
 Coeff:      0.107D-02 0.136D-01 0.754D-01 0.166D+00 0.745D+00
 Gap=     0.265 Goal=   None    Shift=    0.000
 RMSDP=1.32D-08 MaxDP=8.20D-07 DE=-4.91D-10 OVMax= 8.15D-07

 Cycle  12  Pass 1  IDiag  1:
 E= -2554.11212278400     Delta-E=       -0.000000000040 Rises=F Damp=F
 DIIS: error= 5.48D-08 at cycle  12 NSaved=  12.
 NSaved=12 IEnMin=12 EnMin= -2554.11212278400     IErMin=12 ErrMin= 5.48D-08
 ErrMax= 5.48D-08  0.00D+00 EMaxC= 1.00D-01 BMatC= 2.83D-12 BMatP= 2.53D-11
 IDIUse=1 WtCom= 1.00D+00 WtEn= 0.00D+00
 Coeff-Com: -0.124D-05 0.210D-05-0.106D-04-0.118D-04-0.944D-04-0.145D-03
 Coeff-Com: -0.179D-02-0.175D-02 0.608D-02 0.418D-01 0.346D+00 0.610D+00
 Coeff:     -0.124D-05 0.210D-05-0.106D-04-0.118D-04-0.944D-04-0.145D-03
 Coeff:     -0.179D-02-0.175D-02 0.608D-02 0.418D-01 0.346D+00 0.610D+00
 Gap=     0.265 Goal=   None    Shift=    0.000
 RMSDP=4.02D-09 MaxDP=2.24D-07 DE=-4.00D-11 OVMax= 3.15D-07

 Error on total polarization charges =  0.00508
 SCF Done:  E(RB3LYP) =  -2554.11212278     A.U. after   12 cycles
            NFock= 12  Conv=0.40D-08     -V/T= 2.0018
 KE= 2.549447746550D+03 PE=-8.259216579142D+03 EE= 2.074507768916D+03
 SMD-CDS (non-electrostatic) energy       (kcal/mol) =      -3.13
 (included in total energy above)
 Leave Link  502 at Wed Jun 24 01:18:09 2026, MaxMem=  1879048192 cpu:             119.3 elap:              24.3
 (Enter /CH/g16/l601.exe)
 Copying SCF densities to generalized density rwf, IOpCl= 0 IROHF=0.

 **********************************************************************

            Population analysis using the SCF Density.

 **********************************************************************

 Orbital symmetries:
       Occupied  (A) (A) (A) (A) (A) (A) (A) (A) (A) (A) (A) (A)
                 (A) (A) (A) (A) (A) (A) (A) (A) (A) (A) (A) (A)
                 (A) (A) (A) (A) (A) (A) (A) (A) (A) (A) (A) (A)
                 (A) (A) (A) (A) (A) (A) (A) (A) (A) (A) (A) (A)
                 (A) (A) (A) (A) (A) (A) (A) (A) (A) (A) (A) (A)
                 (A)
       Virtual   (A) (A) (A) (A) (A) (A) (A) (A) (A) (A) (A) (A)
                 (A) (A) (A) (A) (A) (A) (A) (A) (A) (A) (A) (A)
                 (A) (A) (A) (A) (A) (A) (A) (A) (A) (A) (A) (A)
                 (A) (A) (A) (A) (A) (A) (A) (A) (A) (A) (A) (A)
                 (A) (A) (A) (A) (A) (A) (A) (A) (A) (A) (A) (A)
                 (A) (A) (A) (A) (A) (A) (A) (A) (A) (A) (A) (A)
                 (A) (A) (A) (A) (A) (A) (A) (A) (A) (A) (A) (A)
                 (A) (A) (A) (A) (A) (A) (A) (A) (A) (A) (A) (A)
                 (A) (A) (A) (A) (A) (A) (A) (A) (A) (A) (A) (A)
                 (A) (A) (A) (A) (A) (A) (A) (A) (A) (A) (A) (A)
                 (A) (A) (A) (A) (A) (A) (A) (A) (A) (A) (A) (A)
                 (A) (A) (A) (A) (A) (A) (A) (A) (A) (A) (A) (A)
                 (A) (A) (A) (A) (A) (A) (A) (A) (A) (A) (A) (A)
                 (A) (A) (A) (A) (A) (A) (A) (A) (A) (A) (A) (A)
                 (A) (A) (A) (A) (A) (A) (A) (A) (A) (A) (A) (A)
                 (A) (A) (A) (A) (A) (A) (A) (A) (A) (A) (A) (A)
                 (A) (A) (A) (A) (A) (A) (A) (A) (A) (A) (A) (A)
                 (A) (A) (A) (A) (A) (A) (A) (A) (A) (A) (A) (A)
                 (A) (A) (A) (A) (A) (A) (A) (A) (A) (A) (A) (A)
                 (A) (A) (A) (A) (A) (A) (A) (A) (A) (A) (A) (A)
                 (A) (A) (A) (A) (A) (A) (A) (A) (A) (A) (A) (A)
                 (A) (A) (A) (A) (A) (A) (A) (A) (A) (A) (A) (A)
                 (A) (A) (A) (A) (A) (A) (A) (A)
 The electronic state is 1-A.
 Alpha  occ. eigenvalues -- -101.49324-101.45429-101.45356-101.44038 -56.05272
 Alpha  occ. eigenvalues --  -55.99758 -19.12902 -19.08058 -19.07783  -9.42831
 Alpha  occ. eigenvalues --   -9.38834  -9.38786  -9.37487  -7.18485  -7.18426
 Alpha  occ. eigenvalues --   -7.18258  -7.14594  -7.14556  -7.14331  -7.14285
 Alpha  occ. eigenvalues --   -7.14282  -7.14215  -7.13253  -7.12957  -7.12945
 Alpha  occ. eigenvalues --   -4.15007  -4.10444  -2.70471  -2.70327  -2.70203
 Alpha  occ. eigenvalues --   -2.66020  -2.65693  -2.65544  -0.99905  -0.94607
 Alpha  occ. eigenvalues --   -0.93714  -0.80220  -0.76348  -0.75303  -0.73890
 Alpha  occ. eigenvalues --   -0.52246  -0.48056  -0.45655  -0.42981  -0.38464
 Alpha  occ. eigenvalues --   -0.38074  -0.35745  -0.34003  -0.33265  -0.32191
 Alpha  occ. eigenvalues --   -0.32073  -0.30639  -0.30208  -0.29333  -0.28929
 Alpha  occ. eigenvalues --   -0.28520  -0.28138  -0.27550  -0.27366  -0.25614
 Alpha  occ. eigenvalues --   -0.25174
 Alpha virt. eigenvalues --    0.01278   0.04877   0.06089   0.07313   0.08976
 Alpha virt. eigenvalues --    0.09665   0.09762   0.12387   0.13398   0.13999
 Alpha virt. eigenvalues --    0.15491   0.16110   0.17651   0.18800   0.19225
 Alpha virt. eigenvalues --    0.20205   0.20889   0.23201   0.24510   0.25025
 Alpha virt. eigenvalues --    0.26007   0.26224   0.27463   0.28531   0.30622
 Alpha virt. eigenvalues --    0.31674   0.32416   0.34946   0.36837   0.37034
 Alpha virt. eigenvalues --    0.37314   0.38062   0.38369   0.38623   0.39796
 Alpha virt. eigenvalues --    0.41213   0.41939   0.43068   0.44074   0.44838
 Alpha virt. eigenvalues --    0.45549   0.46466   0.47678   0.48596   0.49046
 Alpha virt. eigenvalues --    0.49522   0.50942   0.51631   0.53087   0.53438
 Alpha virt. eigenvalues --    0.55547   0.56472   0.57629   0.58113   0.58728
 Alpha virt. eigenvalues --    0.59321   0.60049   0.62153   0.63043   0.64895
 Alpha virt. eigenvalues --    0.65126   0.66492   0.68548   0.69136   0.69646
 Alpha virt. eigenvalues --    0.71595   0.72613   0.73719   0.73886   0.75454
 Alpha virt. eigenvalues --    0.76509   0.78389   0.79228   0.79681   0.81573
 Alpha virt. eigenvalues --    0.82197   0.83314   0.84241   0.86017   0.88140
 Alpha virt. eigenvalues --    0.88701   0.90734   0.92826   0.94110   0.95017
 Alpha virt. eigenvalues --    0.95976   0.98418   1.01256   1.02351   1.03302
 Alpha virt. eigenvalues --    1.05507   1.07452   1.08187   1.10892   1.11162
 Alpha virt. eigenvalues --    1.14388   1.16106   1.17501   1.18346   1.20917
 Alpha virt. eigenvalues --    1.23970   1.24353   1.26444   1.29457   1.41425
 Alpha virt. eigenvalues --    1.47800   1.56548   1.61187   1.65876   1.71254
 Alpha virt. eigenvalues --    1.73024   1.75180   1.75652   1.78932   1.79419
 Alpha virt. eigenvalues --    1.79837   1.82012   1.82696   1.84746   1.86061
 Alpha virt. eigenvalues --    1.86406   1.86757   1.88726   1.90476   1.92217
 Alpha virt. eigenvalues --    1.92554   1.93529   1.94364   1.95816   1.96222
 Alpha virt. eigenvalues --    1.96722   1.96872   1.97756   1.99098   1.99665
 Alpha virt. eigenvalues --    2.01538   2.02410   2.04347   2.04641   2.06056
 Alpha virt. eigenvalues --    2.06556   2.11121   2.11561   2.12596   2.12818
 Alpha virt. eigenvalues --    2.13383   2.13512   2.13957   2.14151   2.14533
 Alpha virt. eigenvalues --    2.14791   2.14943   2.15973   2.16497   2.17577
 Alpha virt. eigenvalues --    2.17766   2.19404   2.22409   2.22935   2.23876
 Alpha virt. eigenvalues --    2.25140   2.26466   2.26730   2.27411   2.27820
 Alpha virt. eigenvalues --    2.29391   2.30068   2.30663   2.31550   2.32132
 Alpha virt. eigenvalues --    2.32615   2.34082   2.34401   2.34825   2.36342
 Alpha virt. eigenvalues --    2.37942   2.39032   2.40361   2.41857   2.43102
 Alpha virt. eigenvalues --    2.44093   2.46183   2.48929   2.50041   2.53143
 Alpha virt. eigenvalues --    2.54691   2.58940   2.62126   2.67107   2.69827
 Alpha virt. eigenvalues --    2.72703   2.72911   2.76383   2.79643   2.80757
 Alpha virt. eigenvalues --    2.86928   2.90466   2.91928   2.93875   2.95182
 Alpha virt. eigenvalues --    2.99436   3.05795   3.27622   3.38136   3.49044
 Alpha virt. eigenvalues --    3.64895   3.81238   3.82349   3.83919   5.13722
 Alpha virt. eigenvalues --    5.14705   5.15682   5.17117   5.17678   5.18743
 Alpha virt. eigenvalues --    5.19597   5.21643   5.22309   5.24200   5.25539
 Alpha virt. eigenvalues --    5.26327   5.41310   5.42436   5.46063   5.46752
 Alpha virt. eigenvalues --    5.48145   5.49597   6.17593   6.21975   6.25678
 Alpha virt. eigenvalues --    6.40133   6.41725   6.47951   6.53199   6.53583
 Alpha virt. eigenvalues --    6.56833   6.59590   6.64232   6.67234   6.70064
 Alpha virt. eigenvalues --    6.75804   6.77840   7.01754   7.02590   7.07617
 Alpha virt. eigenvalues --    7.81123   8.25194   9.40629   9.43558   9.47948
 Alpha virt. eigenvalues --    9.69231   9.74998   9.76780  10.75649  10.76847
 Alpha virt. eigenvalues --   10.78621  10.79402  10.80733  10.81581  10.83346
 Alpha virt. eigenvalues --   10.92923  10.97615  11.01621  11.03597  11.11059
 Alpha virt. eigenvalues --   24.93268  24.97527  25.02839  25.22649  43.45556
 Alpha virt. eigenvalues --   43.47211  43.61081
          Condensed to atoms (all electrons):
               1          2          3          4          5          6
     1  Al  11.057879   0.325243   0.457942   0.462273  -0.021430  -0.041898
     2  O    0.325243   7.756573  -0.006551  -0.012976   0.300203   0.000712
     3  O    0.457942  -0.006551   7.892357  -0.017625  -0.000320   0.302101
     4  O    0.462273  -0.012976  -0.017625   7.907271  -0.001762  -0.004250
     5  H   -0.021430   0.300203  -0.000320  -0.001762   0.368417  -0.000063
     6  H   -0.041898   0.000712   0.302101  -0.004250  -0.000063   0.422374
     7  H   -0.036866   0.000694  -0.000439   0.303112   0.000040  -0.000274
     8  Al  -0.069815   0.228817  -0.004786  -0.011519  -0.006652  -0.000377
     9  Cl   0.246257  -0.067252  -0.017151  -0.015799   0.004929   0.000670
    10  Cl   0.000851  -0.034748  -0.000122  -0.000007   0.000958  -0.000014
    11  Cl  -0.004226   0.001911  -0.000003   0.000001   0.000167  -0.000000
    12  Cl   0.001394  -0.044468  -0.000008  -0.000079   0.013531   0.000002
               7          8          9         10         11         12
     1  Al  -0.036866  -0.069815   0.246257   0.000851  -0.004226   0.001394
     2  O    0.000694   0.228817  -0.067252  -0.034748   0.001911  -0.044468
     3  O   -0.000439  -0.004786  -0.017151  -0.000122  -0.000003  -0.000008
     4  O    0.303112  -0.011519  -0.015799  -0.000007   0.000001  -0.000079
     5  H    0.000040  -0.006652   0.004929   0.000958   0.000167   0.013531
     6  H   -0.000274  -0.000377   0.000670  -0.000014  -0.000000   0.000002
     7  H    0.411772   0.000169   0.000721   0.000003   0.000000   0.000005
     8  Al   0.000169  10.861281   0.212852   0.403379   0.391773   0.366855
     9  Cl   0.000721   0.212852  16.976304  -0.008854  -0.048130  -0.003565
    10  Cl   0.000003   0.403379  -0.008854  17.091234  -0.042787  -0.011663
    11  Cl   0.000000   0.391773  -0.048130  -0.042787  17.205372  -0.052031
    12  Cl   0.000005   0.366855  -0.003565  -0.011663  -0.052031  17.171049
 Mulliken charges:
               1
     1  Al   0.622397
     2  O   -0.448159
     3  O   -0.605396
     4  O   -0.608642
     5  H    0.341982
     6  H    0.321015
     7  H    0.321061
     8  Al   0.628023
     9  Cl  -0.280982
    10  Cl  -0.398230
    11  Cl  -0.452046
    12  Cl  -0.441022
 Sum of Mulliken charges =  -1.00000
 Mulliken charges with hydrogens summed into heavy atoms:
               1
     1  Al   0.622397
     2  O   -0.106178
     3  O   -0.284380
     4  O   -0.287582
     8  Al   0.628023
     9  Cl  -0.280982
    10  Cl  -0.398230
    11  Cl  -0.452046
    12  Cl  -0.441022
 Electronic spatial extent (au):  <R**2>=           2916.5286
 Charge=             -1.0000 electrons
 Dipole moment (field-independent basis, Debye):
    X=             -7.5623    Y=              1.4418    Z=              0.8835  Tot=              7.7491
 Quadrupole moment (field-independent basis, Debye-Ang):
   XX=           -112.0201   YY=           -111.9102   ZZ=           -100.7518
   XY=             -1.3534   XZ=             -8.2421   YZ=             -1.6445
 Traceless Quadrupole moment (field-independent basis, Debye-Ang):
   XX=             -3.7927   YY=             -3.6828   ZZ=              7.4756
   XY=             -1.3534   XZ=             -8.2421   YZ=             -1.6445
 Octapole moment (field-independent basis, Debye-Ang**2):
  XXX=            -91.3728  YYY=             -0.7157  ZZZ=             -8.6390  XYY=            -15.2289
  XXY=             -6.5478  XXZ=             19.2920  XZZ=            -30.7408  YZZ=             13.3294
  YYZ=             17.0155  XYZ=             -1.4609
 Hexadecapole moment (field-independent basis, Debye-Ang**3):
 XXXX=          -2081.7577 YYYY=           -943.7338 ZZZZ=           -735.5300 XXXY=             50.8917
 XXXZ=           -133.1594 YYYX=            -12.9372 YYYZ=              5.4068 ZZZX=             -9.1090
 ZZZY=             -9.1647 XXYY=           -557.7084 XXZZ=           -495.0033 YYZZ=           -273.9352
 XXYZ=             14.3805 YYXZ=             -9.3466 ZZXY=            -20.0424
 N-N= 1.081148940893D+03 E-N=-8.259216566159D+03  KE= 2.549447746550D+03
 No NMR shielding tensors so no spin-rotation constants.
 Leave Link  601 at Wed Jun 24 01:18:10 2026, MaxMem=  1879048192 cpu:               0.4 elap:               0.1
 (Enter /CH/g16/l9999.exe)
 Unable to Open any file for archive entry.
 1\1\GINC-NODE0-CHCLUSTER\SP\RB3LYP\def2TZVP\Al2Cl4H3O3(1-)\LS\24-Jun-2
 026\0\\#p B3LYP/def2TZVP EmpiricalDispersion=GD3BJ SCRF=(SMD,Solvent=T
 etrahydrofuran) int=ultrafine\\AlOH3_cpxtz\\-1,1\Al,0,2.23183,-0.05979
 ,-0.09288\O,0,0.78523,-0.21529,-1.12145\O,0,3.14241,1.3663,-0.4038\O,0
 ,3.02418,-1.55582,0.14042\H,0,0.71274,-0.97087,-1.7278\H,0,4.03842,1.4
 3705,-0.05942\H,0,3.38078,-1.81012,0.99662\Al,0,-0.92459,0.01518,-0.13
 673\Cl,0,0.72198,0.37869,1.55551\Cl,0,-1.46715,1.80437,-1.24999\Cl,0,-
 2.45254,0.10778,1.45791\Cl,0,-1.55174,-1.98717,-0.88966\\Version=ES64L
 -G16RevC.02\State=1-A\HF=-2554.1121228\RMSD=4.018e-09\Dipole=2.9752491
 ,-0.5672258,0.3476076\Quadrupole=-2.8198123,-2.7381071,5.5579194,-1.00
 61882,6.1277981,1.2226506\PG=C01 [X(Al2Cl4H3O3)]\\@
 The archive entry for this job was punched.


 AND HERE I AM, FOR ALL MY LORE,
 THE WRETCHED FOOL I WAS BEFORE.
 CALLED MASTER OF ARTS, AND DOCTOR TO BOOT,
 FOR TEN YEARS ALMOST I CONFUTE
 AND UP AND DOWN, WHEREVER IT GOES
 I DRAG MY STUDENTS BY THE NOSE --
 AND SEE THAT FOR ALL OUR SCIENCE AND ART
 WE CAN KNOW NOTHING.  IT BURNS MY HEART.

                                       -- FAUST
 Job cpu time:       0 days  0 hours  2 minutes  6.4 seconds.
 Elapsed time:       0 days  0 hours  0 minutes 25.3 seconds.
 File lengths (MBytes):  RWF=     99 Int=      0 D2E=      0 Chk=      8 Scr=      1
 Normal termination of Gaussian 16 at Wed Jun 24 01:18:10 2026.
