 Entering Gaussian System, Link 0=/CH/g16/g16
 Initial command:
 /CH/g16/l1.exe "/tmp/g16tz_BSiOx_tz_2947290/Gau-2947309.inp" -scrdir="/tmp/g16tz_BSiOx_tz_2947290/"
 Default is to use a total of  96 processors:
                               96 via shared-memory
                                1 via Linda
 Entering Link 1 = /CH/g16/l1.exe PID=   2947322.
  
 Copyright (c) 1988-2021, Gaussian, Inc.  All Rights Reserved.
  
 This is part of the Gaussian(R) 16 program.  It is based on
 the Gaussian(R) 09 system (copyright 2009, Gaussian, Inc.),
 the Gaussian(R) 03 system (copyright 2003, Gaussian, Inc.),
 the Gaussian(R) 98 system (copyright 1998, Gaussian, Inc.),
 the Gaussian(R) 94 system (copyright 1995, Gaussian, Inc.),
 the Gaussian 92(TM) system (copyright 1992, Gaussian, Inc.),
 the Gaussian 90(TM) system (copyright 1990, Gaussian, Inc.),
 the Gaussian 88(TM) system (copyright 1988, Gaussian, Inc.),
 the Gaussian 86(TM) system (copyright 1986, Carnegie Mellon
 University), and the Gaussian 82(TM) system (copyright 1983,
 Carnegie Mellon University). Gaussian is a federally registered
 trademark of Gaussian, Inc.
  
 This software contains proprietary and confidential information,
 including trade secrets, belonging to Gaussian, Inc.
  
 This software is provided under written license and may be
 used, copied, transmitted, or stored only in accord with that
 written license.
  
 The following legend is applicable only to US Government
 contracts under FAR:
  
                    RESTRICTED RIGHTS LEGEND
  
 Use, reproduction and disclosure by the US Government is
 subject to restrictions as set forth in subparagraphs (a)
 and (c) of the Commercial Computer Software - Restricted
 Rights clause in FAR 52.227-19.
  
 Gaussian, Inc.
 340 Quinnipiac St., Bldg. 40, Wallingford CT 06492
  
  
 ---------------------------------------------------------------
 Warning -- This program may not be used in any manner that
 competes with the business of Gaussian, Inc. or will provide
 assistance to any competitor of Gaussian, Inc.  The licensee
 of this program is prohibited from giving any competitor of
 Gaussian, Inc. access to this program.  By using this program,
 the user acknowledges that Gaussian, Inc. is engaged in the
 business of creating and licensing software in the field of
 computational chemistry and represents and warrants to the
 licensee that it is not a competitor of Gaussian, Inc. and that
 it will not use this program in any manner prohibited above.
 ---------------------------------------------------------------
  

 Cite this work as:
 Gaussian 16, Revision C.02,
 M. J. Frisch, G. W. Trucks, H. B. Schlegel, G. E. Scuseria, 
 M. A. Robb, J. R. Cheeseman, G. Scalmani, V. Barone, 
 G. A. Petersson, H. Nakatsuji, X. Li, M. Caricato, A. V. Marenich, 
 J. Bloino, B. G. Janesko, R. Gomperts, B. Mennucci, H. P. Hratchian, 
 J. V. Ortiz, A. F. Izmaylov, J. L. Sonnenberg, D. Williams-Young, 
 F. Ding, F. Lipparini, F. Egidi, J. Goings, B. Peng, A. Petrone, 
 T. Henderson, D. Ranasinghe, V. G. Zakrzewski, J. Gao, N. Rega, 
 G. Zheng, W. Liang, M. Hada, M. Ehara, K. Toyota, R. Fukuda, 
 J. Hasegawa, M. Ishida, T. Nakajima, Y. Honda, O. Kitao, H. Nakai, 
 T. Vreven, K. Throssell, J. A. Montgomery, Jr., J. E. Peralta, 
 F. Ogliaro, M. J. Bearpark, J. J. Heyd, E. N. Brothers, K. N. Kudin, 
 V. N. Staroverov, T. A. Keith, R. Kobayashi, J. Normand, 
 K. Raghavachari, A. P. Rendell, J. C. Burant, S. S. Iyengar, 
 J. Tomasi, M. Cossi, J. M. Millam, M. Klene, C. Adamo, R. Cammi, 
 J. W. Ochterski, R. L. Martin, K. Morokuma, O. Farkas, 
 J. B. Foresman, and D. J. Fox, Gaussian, Inc., Wallingford CT, 2019.
 
 ******************************************
 Gaussian 16:  ES64L-G16RevC.02  7-Dec-2021
                24-Jun-2026 
 ******************************************
 %chk=BSiOx_tz.chk
 %nprocshared=8
 Will use up to    8 processors via shared memory.
 %mem=14GB
 ----------------------------------------------------------------------
 #p B3LYP/def2TZVP EmpiricalDispersion=GD3BJ SCRF=(SMD,Solvent=Tetrahyd
 rofuran) int=ultrafine
 ----------------------------------------------------------------------
 1/38=1,172=1/1;
 2/12=2,17=6,18=5,40=1/2;
 3/5=44,7=101,11=2,25=1,30=1,70=32201,72=20,74=-5,75=-5,124=41/1,2,3;
 4//1;
 5/5=2,38=5,53=20/2;
 6/7=2,8=2,9=2,10=2,28=1/1;
 99/5=1,9=1/99;
 Leave Link    1 at Wed Jun 24 01:17:41 2026, MaxMem=  1879048192 cpu:               3.4 elap:               0.1
 (Enter /CH/g16/l101.exe)
 --------
 BSiOx_tz
 --------
 Symbolic Z-matrix:
 Charge =  0 Multiplicity = 1
 B                     1.93353   0.       -0.01344 
 O                     0.5972    0.        0.03248 
 Si                   -1.06325   0.00001  -0.00631 
 H                     2.53299   1.05555  -0.03304 
 H                     2.53298  -1.05556  -0.03314 
 H                    -1.53949   1.21696  -0.71705 
 H                    -1.53947  -1.21559  -0.7194 
 H                    -1.54677  -0.00143   1.39837 
 
 ITRead=  0  0  0  0  0  0  0  0
 MicOpt= -1 -1 -1 -1 -1 -1 -1 -1
 NAtoms=      8 NQM=        8 NQMF=       0 NMMI=      0 NMMIF=      0
                NMic=       0 NMicF=      0.
                    Isotopes and Nuclear Properties:
 (Nuclear quadrupole moments (NQMom) in fm**2, nuclear magnetic moments (NMagM)
  in nuclear magnetons)

  Atom         1           2           3           4           5           6           7           8
 IAtWgt=          11          16          28           1           1           1           1           1
 AtmWgt=  11.0093053  15.9949146  27.9769284   1.0078250   1.0078250   1.0078250   1.0078250   1.0078250
 NucSpn=           3           0           0           1           1           1           1           1
 AtZEff=  -0.0000000  -0.0000000  -0.0000000  -0.0000000  -0.0000000  -0.0000000  -0.0000000  -0.0000000
 NQMom=    4.0590000   0.0000000   0.0000000   0.0000000   0.0000000   0.0000000   0.0000000   0.0000000
 NMagM=    2.6886370   0.0000000   0.0000000   2.7928460   2.7928460   2.7928460   2.7928460   2.7928460
 AtZNuc=   5.0000000   8.0000000  14.0000000   1.0000000   1.0000000   1.0000000   1.0000000   1.0000000
 Leave Link  101 at Wed Jun 24 01:17:41 2026, MaxMem=  1879048192 cpu:               0.1 elap:               0.1
 (Enter /CH/g16/l202.exe)
                          Input orientation:                          
 ---------------------------------------------------------------------
 Center     Atomic      Atomic             Coordinates (Angstroms)
 Number     Number       Type             X           Y           Z
 ---------------------------------------------------------------------
      1          5           0        1.933530    0.000000   -0.013440
      2          8           0        0.597200    0.000000    0.032480
      3         14           0       -1.063250    0.000010   -0.006310
      4          1           0        2.532990    1.055550   -0.033040
      5          1           0        2.532980   -1.055560   -0.033140
      6          1           0       -1.539490    1.216960   -0.717050
      7          1           0       -1.539470   -1.215590   -0.719400
      8          1           0       -1.546770   -0.001430    1.398370
 ---------------------------------------------------------------------
                    Distance matrix (angstroms):
                    1          2          3          4          5
     1  B    0.000000
     2  O    1.337119   0.000000
     3  Si   2.996788   1.660903   0.000000
     4  H    1.214052   2.205847   3.748042   0.000000
     5  H    1.214057   2.205846   3.748042   2.111110   0.000000
     6  H    3.746722   2.570648   1.487590   4.132677   4.713501
     7  H    3.746701   2.570669   1.487604   4.713183   4.132966
     8  H    3.755755   2.542099   1.485570   4.450908   4.450255
                    6          7          8
     6  H    0.000000
     7  H    2.432551   0.000000
     8  H    2.441215   2.441145   0.000000
 Stoichiometry    BH5OSi
 Framework group  C1[X(BH5OSi)]
 Deg. of freedom    18
 Full point group                 C1      NOp   1
 Largest Abelian subgroup         C1      NOp   1
 Largest concise Abelian subgroup C1      NOp   1
                         Standard orientation:                         
 ---------------------------------------------------------------------
 Center     Atomic      Atomic             Coordinates (Angstroms)
 Number     Number       Type             X           Y           Z
 ---------------------------------------------------------------------
      1          5           0        1.933530    0.000001   -0.013441
      2          8           0        0.597200   -0.000001    0.032479
      3         14           0       -1.063250    0.000006   -0.006311
      4          1           0        2.532989    1.055552   -0.033041
      5          1           0        2.532982   -1.055558   -0.033141
      6          1           0       -1.539492    1.216955   -0.717051
      7          1           0       -1.539468   -1.215595   -0.719401
      8          1           0       -1.546770   -0.001435    1.398369
 ---------------------------------------------------------------------
 Rotational constants (GHZ):          61.1830888           4.9739493           4.8687608
 Leave Link  202 at Wed Jun 24 01:17:41 2026, MaxMem=  1879048192 cpu:               0.0 elap:               0.0
 (Enter /CH/g16/l301.exe)
 Standard basis: def2TZVP (5D, 7F)
 Ernie: Thresh=  0.10000D-02 Tol=  0.10000D-05 Strict=F.
 There are   144 symmetry adapted cartesian basis functions of A   symmetry.
 There are   129 symmetry adapted basis functions of A   symmetry.
   129 basis functions,   211 primitive gaussians,   144 cartesian basis functions
    16 alpha electrons       16 beta electrons
       nuclear repulsion energy        99.6688629208 Hartrees.
 IExCor=  402 DFT=T Ex+Corr=B3LYP ExCW=0 ScaHFX=  0.200000
 ScaDFX=  0.800000  0.720000  1.000000  0.810000 ScalE2=  1.000000  1.000000
 IRadAn=      5 IRanWt=     -1 IRanGd=            0 ICorTp=0 IEmpDi=141
 NAtoms=    8 NActive=    8 NUniq=    8 SFac= 1.00D+00 NAtFMM=   60 NAOKFM=F Big=F
 Integral buffers will be    131072 words long.
 Raffenetti 2 integral format.
 Two-electron integral symmetry is turned on.
 R6Disp:  Grimme-D3(BJ) Dispersion energy=       -0.0073076847 Hartrees.
 Nuclear repulsion after empirical dispersion term =       99.6615552360 Hartrees.
 ------------------------------------------------------------------------------
 Polarizable Continuum Model (PCM)
 =================================
 Model                : PCM.
 Atomic radii         : SMD-Coulomb.
 Polarization charges : Total charges.
 Charge compensation  : None.
 Solution method      : On-the-fly selection.
 Cavity type          : VdW (van der Waals Surface) (Alpha=1.000).
 Cavity algorithm     : GePol (No added spheres)
                        Default sphere list used, NSphG=    8.
                        Lebedev-Laikov grids with approx.  5.0 points / Ang**2.
                        Smoothing algorithm: York/Karplus (Gamma=1.0000).
                        Polarization charges: spherical gaussians, with
                                              point-specific exponents (IZeta= 3).
                        Self-potential: point-specific (ISelfS= 7).
                        Self-field    : sphere-specific E.n sum rule (ISelfD= 2).
 Solvent              : TetraHydroFuran, Eps=   7.425700 Eps(inf)=   1.974025
 ------------------------------------------------------------------------------
 Spheres list:
 ISph  on   Nord     Re0    Alpha      Xe            Ye            Ze
    1   B      1    1.8000  1.000      1.933530      0.000001     -0.013441
    2   O      2    2.2940  1.000      0.597200     -0.000001      0.032479
    3  Si      3    2.4700  1.000     -1.063250      0.000006     -0.006311
    4   H      4    1.2000  1.000      2.532989      1.055552     -0.033041
    5   H      5    1.2000  1.000      2.532982     -1.055558     -0.033141
    6   H      6    1.2000  1.000     -1.539492      1.216955     -0.717051
    7   H      7    1.2000  1.000     -1.539468     -1.215595     -0.719401
    8   H      8    1.2000  1.000     -1.546770     -0.001435      1.398369
 ------------------------------------------------------------------------------
 GePol: Number of generator spheres                  =       8
 GePol: Total number of spheres                      =       8
 GePol: Number of exposed spheres                    =       8 (100.00%)
 GePol: Number of points                             =     849
 GePol: Average weight of points                     =       0.13
 GePol: Minimum weight of points                     =   0.88D-05
 GePol: Maximum weight of points                     =    0.19536
 GePol: Number of points with low weight             =      27
 GePol: Fraction of low-weight points (<1% of avg)   =       3.18%
 GePol: Cavity surface area                          =    109.474 Ang**2
 GePol: Cavity volume                                =     96.602 Ang**3
 ------------------------------------------------------------------------------
 Atomic radii for non-electrostatic terms: SMD-CDS.
 ------------------------------------------------------------------------------
 PCM non-electrostatic energy =         0.0009471546 Hartrees.
 Nuclear repulsion after PCM non-electrostatic terms =       99.6625023906 Hartrees.
 Leave Link  301 at Wed Jun 24 01:17:41 2026, MaxMem=  1879048192 cpu:               0.0 elap:               0.0
 (Enter /CH/g16/l302.exe)
 NPDir=0 NMtPBC=     1 NCelOv=     1 NCel=       1 NClECP=     1 NCelD=      1
         NCelK=      1 NCelE2=     1 NClLst=     1 CellRange=     0.0.
 One-electron integrals computed using PRISM.
 One-electron integral symmetry used in STVInt
   1 Symmetry operations used in ECPInt.
 ECPInt:  NShTT=    1540 NPrTT=    4848 LenC2=    1537 LenP2D=    4139.
 LDataN:  DoStor=T MaxTD1= 6 Len=  172
 NBasis=   129 RedAO= T EigKep=  1.41D-04  NBF=   129
 NBsUse=   129 1.00D-06 EigRej= -1.00D+00 NBFU=   129
 Precomputing XC quadrature grid using
 IXCGrd= 4 IRadAn=           5 IRanWt=          -1 IRanGd=           0 AccXCQ= 0.00D+00.
 Generated NRdTot=       0 NPtTot=           0 NUsed=           0 NTot=          32
 NSgBfM=   143   143   143   143   143 MxSgAt=     8 MxSgA2=     8.
 Leave Link  302 at Wed Jun 24 01:17:41 2026, MaxMem=  1879048192 cpu:               0.4 elap:               0.1
 (Enter /CH/g16/l303.exe)
 DipDrv:  MaxL=1.
 Leave Link  303 at Wed Jun 24 01:17:41 2026, MaxMem=  1879048192 cpu:               0.0 elap:               0.0
 (Enter /CH/g16/l401.exe)
 ExpMin= 6.06D-02 ExpMax= 4.48D+04 ExpMxC= 1.53D+03 IAcc=3 IRadAn=         5 AccDes= 0.00D+00
 Harris functional with IExCor=  402 and IRadAn=       5 diagonalized for initial guess.
 HarFok:  IExCor=  402 AccDes= 0.00D+00 IRadAn=         5 IDoV= 1 UseB2=F ITyADJ=14
 ICtDFT=  3500011 ScaDFX=  1.000000  1.000000  1.000000  1.000000
 FoFCou: FMM=F IPFlag=           0 FMFlag=      100000 FMFlg1=           0
         NFxFlg=           0 DoJE=T BraDBF=F KetDBF=T FulRan=T
         wScrn=  0.000000 ICntrl=       500 IOpCl=  0 I1Cent=   200000004 NGrid=           0
         NMat0=    1 NMatS0=      1 NMatT0=    0 NMatD0=    1 NMtDS0=    0 NMtDT0=    0
 Petite list used in FoFCou.
 Harris En= -392.705812692195    
 JPrj=0 DoOrth=F DoCkMO=F.
 Leave Link  401 at Wed Jun 24 01:17:41 2026, MaxMem=  1879048192 cpu:               1.2 elap:               0.2
 (Enter /CH/g16/l502.exe)
 Keep R1 ints in memory in canonical form, NReq=42937091.
 FoFCou: FMM=F IPFlag=           0 FMFlag=           0 FMFlg1=           0
         NFxFlg=           0 DoJE=F BraDBF=F KetDBF=F FulRan=T
         wScrn=  0.000000 ICntrl=       600 IOpCl=  0 I1Cent=           0 NGrid=           0
         NMat0=    1 NMatS0=   8385 NMatT0=    0 NMatD0=    1 NMtDS0=    0 NMtDT0=    0
 Symmetry not used in FoFCou.
 Two-electron integral symmetry not used.
 Closed shell SCF:
 Using DIIS extrapolation, IDIIS=  1040.
 NGot=  1879048192 LenX=  1843845617 LenY=  1843824440
 Requested convergence on RMS density matrix=1.00D-08 within 128 cycles.
 Requested convergence on MAX density matrix=1.00D-06.
 Requested convergence on             energy=1.00D-06.
 No special actions if energy rises.

 Cycle   1  Pass 1  IDiag  1:
 Inv3:  Mode=1 IEnd=     2162403.
 Iteration    1 A*A^-1 deviation from unit magnitude is 2.66D-15 for    248.
 Iteration    1 A*A^-1 deviation from orthogonality  is 1.78D-15 for    630      9.
 Iteration    1 A^-1*A deviation from unit magnitude is 2.66D-15 for    459.
 Iteration    1 A^-1*A deviation from orthogonality  is 2.08D-15 for    539    187.
 E= -392.628302894269    
 DIIS: error= 3.24D-02 at cycle   1 NSaved=   1.
 NSaved= 1 IEnMin= 1 EnMin= -392.628302894269     IErMin= 1 ErrMin= 3.24D-02
 ErrMax= 3.24D-02  0.00D+00 EMaxC= 1.00D-01 BMatC= 1.35D-01 BMatP= 1.35D-01
 IDIUse=3 WtCom= 6.76D-01 WtEn= 3.24D-01
 Coeff-Com:  0.100D+01
 Coeff-En:   0.100D+01
 Coeff:      0.100D+01
 Gap=     0.255 Goal=   None    Shift=    0.000
 GapD=    0.255 DampG=1.000 DampE=0.500 DampFc=0.5000 IDamp=-1.
 Damping current iteration by 5.00D-01
 RMSDP=3.78D-03 MaxDP=1.03D-01              OVMax= 2.18D-01

 Cycle   2  Pass 1  IDiag  1:
 E= -392.646273277393     Delta-E=       -0.017970383125 Rises=F Damp=T
 DIIS: error= 1.21D-02 at cycle   2 NSaved=   2.
 NSaved= 2 IEnMin= 2 EnMin= -392.646273277393     IErMin= 2 ErrMin= 1.21D-02
 ErrMax= 1.21D-02  0.00D+00 EMaxC= 1.00D-01 BMatC= 2.17D-02 BMatP= 1.35D-01
 IDIUse=3 WtCom= 8.79D-01 WtEn= 1.21D-01
 Coeff-Com:  0.226D+00 0.774D+00
 Coeff-En:   0.398D+00 0.602D+00
 Coeff:      0.247D+00 0.753D+00
 Gap=     0.283 Goal=   None    Shift=    0.000
 RMSDP=1.11D-03 MaxDP=1.75D-02 DE=-1.80D-02 OVMax= 1.58D-01

 Cycle   3  Pass 1  IDiag  1:
 E= -392.715767129569     Delta-E=       -0.069493852176 Rises=F Damp=F
 DIIS: error= 6.65D-03 at cycle   3 NSaved=   3.
 NSaved= 3 IEnMin= 3 EnMin= -392.715767129569     IErMin= 3 ErrMin= 6.65D-03
 ErrMax= 6.65D-03  0.00D+00 EMaxC= 1.00D-01 BMatC= 5.31D-03 BMatP= 2.17D-02
 IDIUse=3 WtCom= 9.33D-01 WtEn= 6.65D-02
 Coeff-Com: -0.164D-01 0.310D+00 0.706D+00
 Coeff-En:   0.000D+00 0.000D+00 0.100D+01
 Coeff:     -0.153D-01 0.290D+00 0.726D+00
 Gap=     0.255 Goal=   None    Shift=    0.000
 RMSDP=3.98D-04 MaxDP=1.23D-02 DE=-6.95D-02 OVMax= 2.49D-02

 Cycle   4  Pass 1  IDiag  1:
 E= -392.719828321169     Delta-E=       -0.004061191599 Rises=F Damp=F
 DIIS: error= 1.75D-03 at cycle   4 NSaved=   4.
 NSaved= 4 IEnMin= 4 EnMin= -392.719828321169     IErMin= 4 ErrMin= 1.75D-03
 ErrMax= 1.75D-03  0.00D+00 EMaxC= 1.00D-01 BMatC= 3.74D-04 BMatP= 5.31D-03
 IDIUse=3 WtCom= 9.82D-01 WtEn= 1.75D-02
 Coeff-Com: -0.157D-01 0.779D-01 0.307D+00 0.631D+00
 Coeff-En:   0.000D+00 0.000D+00 0.000D+00 0.100D+01
 Coeff:     -0.155D-01 0.765D-01 0.302D+00 0.637D+00
 Gap=     0.255 Goal=   None    Shift=    0.000
 RMSDP=1.25D-04 MaxDP=5.87D-03 DE=-4.06D-03 OVMax= 5.86D-03

 Cycle   5  Pass 1  IDiag  1:
 E= -392.720163515328     Delta-E=       -0.000335194159 Rises=F Damp=F
 DIIS: error= 2.18D-04 at cycle   5 NSaved=   5.
 NSaved= 5 IEnMin= 5 EnMin= -392.720163515328     IErMin= 5 ErrMin= 2.18D-04
 ErrMax= 2.18D-04  0.00D+00 EMaxC= 1.00D-01 BMatC= 4.35D-06 BMatP= 3.74D-04
 IDIUse=3 WtCom= 9.98D-01 WtEn= 2.18D-03
 Coeff-Com: -0.239D-02 0.258D-02 0.327D-01 0.144D+00 0.823D+00
 Coeff-En:   0.000D+00 0.000D+00 0.000D+00 0.000D+00 0.100D+01
 Coeff:     -0.238D-02 0.257D-02 0.326D-01 0.144D+00 0.823D+00
 Gap=     0.255 Goal=   None    Shift=    0.000
 RMSDP=1.54D-05 MaxDP=8.31D-04 DE=-3.35D-04 OVMax= 6.17D-04

 Cycle   6  Pass 1  IDiag  1:
 E= -392.720168121674     Delta-E=       -0.000004606347 Rises=F Damp=F
 DIIS: error= 1.84D-05 at cycle   6 NSaved=   6.
 NSaved= 6 IEnMin= 6 EnMin= -392.720168121674     IErMin= 6 ErrMin= 1.84D-05
 ErrMax= 1.84D-05  0.00D+00 EMaxC= 1.00D-01 BMatC= 3.97D-08 BMatP= 4.35D-06
 IDIUse=1 WtCom= 1.00D+00 WtEn= 0.00D+00
 Coeff-Com: -0.222D-03-0.539D-03 0.186D-02 0.141D-01 0.139D+00 0.846D+00
 Coeff:     -0.222D-03-0.539D-03 0.186D-02 0.141D-01 0.139D+00 0.846D+00
 Gap=     0.255 Goal=   None    Shift=    0.000
 RMSDP=1.47D-06 MaxDP=8.07D-05 DE=-4.61D-06 OVMax= 6.67D-05

 Cycle   7  Pass 1  IDiag  1:
 E= -392.720168155829     Delta-E=       -0.000000034155 Rises=F Damp=F
 DIIS: error= 2.46D-06 at cycle   7 NSaved=   7.
 NSaved= 7 IEnMin= 7 EnMin= -392.720168155829     IErMin= 7 ErrMin= 2.46D-06
 ErrMax= 2.46D-06  0.00D+00 EMaxC= 1.00D-01 BMatC= 8.83D-10 BMatP= 3.97D-08
 IDIUse=1 WtCom= 1.00D+00 WtEn= 0.00D+00
 Coeff-Com: -0.275D-05-0.436D-04-0.363D-03-0.231D-03 0.911D-03 0.755D-01
 Coeff-Com:  0.924D+00
 Coeff:     -0.275D-05-0.436D-04-0.363D-03-0.231D-03 0.911D-03 0.755D-01
 Coeff:      0.924D+00
 Gap=     0.255 Goal=   None    Shift=    0.000
 RMSDP=3.47D-07 MaxDP=2.08D-05 DE=-3.42D-08 OVMax= 1.13D-05

 Cycle   8  Pass 1  IDiag  1:
 E= -392.720168156777     Delta-E=       -0.000000000948 Rises=F Damp=F
 DIIS: error= 5.38D-07 at cycle   8 NSaved=   8.
 NSaved= 8 IEnMin= 8 EnMin= -392.720168156777     IErMin= 8 ErrMin= 5.38D-07
 ErrMax= 5.38D-07  0.00D+00 EMaxC= 1.00D-01 BMatC= 6.57D-11 BMatP= 8.83D-10
 IDIUse=1 WtCom= 1.00D+00 WtEn= 0.00D+00
 Coeff-Com: -0.340D-06 0.179D-05-0.187D-03-0.534D-03-0.334D-02 0.102D-01
 Coeff-Com:  0.284D+00 0.710D+00
 Coeff:     -0.340D-06 0.179D-05-0.187D-03-0.534D-03-0.334D-02 0.102D-01
 Coeff:      0.284D+00 0.710D+00
 Gap=     0.255 Goal=   None    Shift=    0.000
 RMSDP=7.97D-08 MaxDP=4.75D-06 DE=-9.48D-10 OVMax= 2.24D-06

 Cycle   9  Pass 1  IDiag  1:
 E= -392.720168156834     Delta-E=       -0.000000000057 Rises=F Damp=F
 DIIS: error= 2.00D-07 at cycle   9 NSaved=   9.
 NSaved= 9 IEnMin= 9 EnMin= -392.720168156834     IErMin= 9 ErrMin= 2.00D-07
 ErrMax= 2.00D-07  0.00D+00 EMaxC= 1.00D-01 BMatC= 5.01D-12 BMatP= 6.57D-11
 IDIUse=1 WtCom= 1.00D+00 WtEn= 0.00D+00
 Coeff-Com: -0.198D-05 0.636D-05-0.320D-04-0.107D-03-0.782D-03-0.238D-02
 Coeff-Com:  0.201D-01 0.150D+00 0.833D+00
 Coeff:     -0.198D-05 0.636D-05-0.320D-04-0.107D-03-0.782D-03-0.238D-02
 Coeff:      0.201D-01 0.150D+00 0.833D+00
 Gap=     0.255 Goal=   None    Shift=    0.000
 RMSDP=1.14D-08 MaxDP=2.44D-07 DE=-5.65D-11 OVMax= 4.41D-07

 Cycle  10  Pass 1  IDiag  1:
 E= -392.720168156837     Delta-E=       -0.000000000003 Rises=F Damp=F
 DIIS: error= 3.27D-08 at cycle  10 NSaved=  10.
 NSaved=10 IEnMin=10 EnMin= -392.720168156837     IErMin=10 ErrMin= 3.27D-08
 ErrMax= 3.27D-08  0.00D+00 EMaxC= 1.00D-01 BMatC= 1.42D-13 BMatP= 5.01D-12
 IDIUse=1 WtCom= 1.00D+00 WtEn= 0.00D+00
 Coeff-Com: -0.454D-06 0.936D-06-0.225D-05-0.884D-06-0.235D-04-0.388D-03
 Coeff-Com: -0.503D-02 0.130D-02 0.922D-01 0.912D+00
 Coeff:     -0.454D-06 0.936D-06-0.225D-05-0.884D-06-0.235D-04-0.388D-03
 Coeff:     -0.503D-02 0.130D-02 0.922D-01 0.912D+00
 Gap=     0.255 Goal=   None    Shift=    0.000
 RMSDP=2.21D-09 MaxDP=4.14D-08 DE=-3.13D-12 OVMax= 8.32D-08

 Error on total polarization charges =  0.03144
 SCF Done:  E(RB3LYP) =  -392.720168157     A.U. after   10 cycles
            NFock= 10  Conv=0.22D-08     -V/T= 2.0034
 KE= 3.913821884149D+02 PE=-1.130077127888D+03 EE= 2.463122689254D+02
 SMD-CDS (non-electrostatic) energy       (kcal/mol) =       0.59
 (included in total energy above)
 Leave Link  502 at Wed Jun 24 01:17:44 2026, MaxMem=  1879048192 cpu:              16.2 elap:               2.5
 (Enter /CH/g16/l601.exe)
 Copying SCF densities to generalized density rwf, IOpCl= 0 IROHF=0.

 **********************************************************************

            Population analysis using the SCF Density.

 **********************************************************************

 Orbital symmetries:
       Occupied  (A) (A) (A) (A) (A) (A) (A) (A) (A) (A) (A) (A)
                 (A) (A) (A) (A)
       Virtual   (A) (A) (A) (A) (A) (A) (A) (A) (A) (A) (A) (A)
                 (A) (A) (A) (A) (A) (A) (A) (A) (A) (A) (A) (A)
                 (A) (A) (A) (A) (A) (A) (A) (A) (A) (A) (A) (A)
                 (A) (A) (A) (A) (A) (A) (A) (A) (A) (A) (A) (A)
                 (A) (A) (A) (A) (A) (A) (A) (A) (A) (A) (A) (A)
                 (A) (A) (A) (A) (A) (A) (A) (A) (A) (A) (A) (A)
                 (A) (A) (A) (A) (A) (A) (A) (A) (A) (A) (A) (A)
                 (A) (A) (A) (A) (A) (A) (A) (A) (A) (A) (A) (A)
                 (A) (A) (A) (A) (A) (A) (A) (A) (A) (A) (A) (A)
                 (A) (A) (A) (A) (A)
 The electronic state is 1-A.
 Alpha  occ. eigenvalues --  -66.14139 -19.14285  -6.77806  -5.29938  -3.65928
 Alpha  occ. eigenvalues --   -3.65649  -3.65635  -1.01664  -0.61276  -0.48463
 Alpha  occ. eigenvalues --   -0.42950  -0.42510  -0.41180  -0.35283  -0.33624
 Alpha  occ. eigenvalues --   -0.28208
 Alpha virt. eigenvalues --   -0.02700   0.00272   0.05373   0.05660   0.05676
 Alpha virt. eigenvalues --    0.08337   0.10119   0.10806   0.14099   0.15279
 Alpha virt. eigenvalues --    0.16264   0.17090   0.21959   0.24015   0.26409
 Alpha virt. eigenvalues --    0.27122   0.28328   0.31558   0.32861   0.37064
 Alpha virt. eigenvalues --    0.37213   0.40707   0.45526   0.50809   0.52864
 Alpha virt. eigenvalues --    0.53383   0.54821   0.55258   0.61947   0.63573
 Alpha virt. eigenvalues --    0.66116   0.69795   0.72898   0.75532   0.83828
 Alpha virt. eigenvalues --    0.88369   0.90313   0.92089   0.94135   0.94383
 Alpha virt. eigenvalues --    0.96254   0.97830   0.98569   1.04876   1.05272
 Alpha virt. eigenvalues --    1.08796   1.17369   1.23928   1.28153   1.29252
 Alpha virt. eigenvalues --    1.35830   1.37796   1.38190   1.42295   1.49963
 Alpha virt. eigenvalues --    1.56964   1.63430   1.64158   1.66472   1.68925
 Alpha virt. eigenvalues --    1.75028   1.82697   1.83167   1.86644   1.87927
 Alpha virt. eigenvalues --    1.88199   1.91942   1.94746   2.00026   2.02187
 Alpha virt. eigenvalues --    2.04871   2.05156   2.11432   2.24765   2.28151
 Alpha virt. eigenvalues --    2.30092   2.32584   2.33209   2.37384   2.39053
 Alpha virt. eigenvalues --    2.47699   2.59102   2.64026   2.70082   2.77801
 Alpha virt. eigenvalues --    2.77871   2.80280   2.81326   2.95903   2.96040
 Alpha virt. eigenvalues --    2.99181   3.24673   3.34644   3.41111   3.62622
 Alpha virt. eigenvalues --    5.12219   5.12318   5.31822   5.38667   5.66533
 Alpha virt. eigenvalues --    5.75146   5.80185   6.16433   6.17350   6.33823
 Alpha virt. eigenvalues --    6.37431   6.60540   6.78431   6.82014   7.21904
 Alpha virt. eigenvalues --   11.17447  14.83494  43.56176
          Condensed to atoms (all electrons):
               1          2          3          4          5          6
     1  B    3.822374   0.298796  -0.115408   0.404800   0.404804  -0.000935
     2  O    0.298796   7.630641   0.458564  -0.032186  -0.032188  -0.018109
     3  Si  -0.115408   0.458564  12.129155   0.000659   0.000659   0.399578
     4  H    0.404800  -0.032186   0.000659   0.741904  -0.064622   0.001084
     5  H    0.404804  -0.032188   0.000659  -0.064622   0.741905  -0.000432
     6  H   -0.000935  -0.018109   0.399578   0.001084  -0.000432   0.715392
     7  H   -0.000935  -0.018102   0.399577  -0.000432   0.001082  -0.025695
     8  H   -0.000256  -0.015730   0.399538  -0.000069  -0.000068  -0.023137
               7          8
     1  B   -0.000935  -0.000256
     2  O   -0.018102  -0.015730
     3  Si   0.399577   0.399538
     4  H   -0.000432  -0.000069
     5  H    0.001082  -0.000068
     6  H   -0.025695  -0.023137
     7  H    0.715387  -0.023137
     8  H   -0.023137   0.707843
 Mulliken charges:
               1
     1  B    0.186761
     2  O   -0.271686
     3  Si   0.327677
     4  H   -0.051138
     5  H   -0.051141
     6  H   -0.047746
     7  H   -0.047744
     8  H   -0.044984
 Sum of Mulliken charges =  -0.00000
 Mulliken charges with hydrogens summed into heavy atoms:
               1
     1  B    0.084482
     2  O   -0.271686
     3  Si   0.187204
 Electronic spatial extent (au):  <R**2>=            297.4439
 Charge=             -0.0000 electrons
 Dipole moment (field-independent basis, Debye):
    X=             -1.2821    Y=              0.0001    Z=             -0.0187  Tot=              1.2823
 Quadrupole moment (field-independent basis, Debye-Ang):
   XX=            -29.3244   YY=            -29.1176   ZZ=            -26.9066
   XY=              0.0001   XZ=             -0.0155   YZ=             -0.0001
 Traceless Quadrupole moment (field-independent basis, Debye-Ang):
   XX=             -0.8748   YY=             -0.6681   ZZ=              1.5429
   XY=              0.0001   XZ=             -0.0155   YZ=             -0.0001
 Octapole moment (field-independent basis, Debye-Ang**2):
  XXX=            -15.3622  YYY=             -0.0027  ZZZ=             -0.5783  XYY=             -3.2206
  XXY=             -0.0001  XXZ=              0.4991  XZZ=              1.2632  YZZ=              0.0027
  YYZ=              1.0812  XYZ=             -0.0002
 Hexadecapole moment (field-independent basis, Debye-Ang**3):
 XXXX=           -396.7213 YYYY=            -71.0602 ZZZZ=            -52.4562 XXXY=              0.0006
 XXXZ=              0.9441 YYYX=              0.0030 YYYZ=             -0.0000 ZZZX=              0.9679
 ZZZY=             -0.0005 XXYY=            -83.2121 XXZZ=            -70.1845 YYZZ=            -20.7801
 XXYZ=             -0.0005 YYXZ=             -0.8855 ZZXY=             -0.0028
 N-N= 9.966250239059D+01 E-N=-1.130077124774D+03  KE= 3.913821884149D+02
 No NMR shielding tensors so no spin-rotation constants.
 Leave Link  601 at Wed Jun 24 01:17:44 2026, MaxMem=  1879048192 cpu:               0.3 elap:               0.1
 (Enter /CH/g16/l9999.exe)
 Unable to Open any file for archive entry.
 1\1\GINC-NODE0-CHCLUSTER\SP\RB3LYP\def2TZVP\B1H5O1Si1\LS\24-Jun-2026\0
 \\#p B3LYP/def2TZVP EmpiricalDispersion=GD3BJ SCRF=(SMD,Solvent=Tetrah
 ydrofuran) int=ultrafine\\BSiOx_tz\\0,1\B,0,1.93353,0.,-0.01344\O,0,0.
 5972,0.,0.03248\Si,0,-1.06325,0.00001,-0.00631\H,0,2.53299,1.05555,-0.
 03304\H,0,2.53298,-1.05556,-0.03314\H,0,-1.53949,1.21696,-0.71705\H,0,
 -1.53947,-1.21559,-0.7194\H,0,-1.54677,-0.00143,1.39837\\Version=ES64L
 -G16RevC.02\State=1-A\HF=-392.7201682\RMSD=2.213e-09\Dipole=-0.5044362
 ,0.0000206,-0.0073754\Quadrupole=-0.6504139,-0.4967293,1.1471432,0.000
 0552,-0.0115187,-0.0000986\PG=C01 [X(B1H5O1Si1)]\\@
 The archive entry for this job was punched.


 WE HAVE LEARNED THAT NOTHING IS SIMPLE AND
 RATIONAL EXCEPT WHAT WE OURSELVES HAVE INVENTED;
 THAT GOD THINKS IN TERMS NEITHER OF EUCLID OR RIEMANN; THAT SCIENCE HAS "EXPLAINED" NOTHING;
 THAT THE MORE WE KNOW THE MORE FANTASTIC THE WORLD BECOMES
 AND THE PROFOUNDER THE SURROUNDING DARKNESS.
   --  ALDOUS HUXLEY
 Job cpu time:       0 days  0 hours  0 minutes 22.1 seconds.
 Elapsed time:       0 days  0 hours  0 minutes  3.2 seconds.
 File lengths (MBytes):  RWF=     23 Int=      0 D2E=      0 Chk=      2 Scr=      1
 Normal termination of Gaussian 16 at Wed Jun 24 01:17:44 2026.
