 Entering Gaussian System, Link 0=/CH/g16/g16
 Initial command:
 /CH/g16/l1.exe "/tmp/g16cx2_BSiOx_2936425/Gau-2936434.inp" -scrdir="/tmp/g16cx2_BSiOx_2936425/"
 Default is to use a total of  96 processors:
                               96 via shared-memory
                                1 via Linda
 Entering Link 1 = /CH/g16/l1.exe PID=   2936437.
  
 Copyright (c) 1988-2021, Gaussian, Inc.  All Rights Reserved.
  
 This is part of the Gaussian(R) 16 program.  It is based on
 the Gaussian(R) 09 system (copyright 2009, Gaussian, Inc.),
 the Gaussian(R) 03 system (copyright 2003, Gaussian, Inc.),
 the Gaussian(R) 98 system (copyright 1998, Gaussian, Inc.),
 the Gaussian(R) 94 system (copyright 1995, Gaussian, Inc.),
 the Gaussian 92(TM) system (copyright 1992, Gaussian, Inc.),
 the Gaussian 90(TM) system (copyright 1990, Gaussian, Inc.),
 the Gaussian 88(TM) system (copyright 1988, Gaussian, Inc.),
 the Gaussian 86(TM) system (copyright 1986, Carnegie Mellon
 University), and the Gaussian 82(TM) system (copyright 1983,
 Carnegie Mellon University). Gaussian is a federally registered
 trademark of Gaussian, Inc.
  
 This software contains proprietary and confidential information,
 including trade secrets, belonging to Gaussian, Inc.
  
 This software is provided under written license and may be
 used, copied, transmitted, or stored only in accord with that
 written license.
  
 The following legend is applicable only to US Government
 contracts under FAR:
  
                    RESTRICTED RIGHTS LEGEND
  
 Use, reproduction and disclosure by the US Government is
 subject to restrictions as set forth in subparagraphs (a)
 and (c) of the Commercial Computer Software - Restricted
 Rights clause in FAR 52.227-19.
  
 Gaussian, Inc.
 340 Quinnipiac St., Bldg. 40, Wallingford CT 06492
  
  
 ---------------------------------------------------------------
 Warning -- This program may not be used in any manner that
 competes with the business of Gaussian, Inc. or will provide
 assistance to any competitor of Gaussian, Inc.  The licensee
 of this program is prohibited from giving any competitor of
 Gaussian, Inc. access to this program.  By using this program,
 the user acknowledges that Gaussian, Inc. is engaged in the
 business of creating and licensing software in the field of
 computational chemistry and represents and warrants to the
 licensee that it is not a competitor of Gaussian, Inc. and that
 it will not use this program in any manner prohibited above.
 ---------------------------------------------------------------
  

 Cite this work as:
 Gaussian 16, Revision C.02,
 M. J. Frisch, G. W. Trucks, H. B. Schlegel, G. E. Scuseria, 
 M. A. Robb, J. R. Cheeseman, G. Scalmani, V. Barone, 
 G. A. Petersson, H. Nakatsuji, X. Li, M. Caricato, A. V. Marenich, 
 J. Bloino, B. G. Janesko, R. Gomperts, B. Mennucci, H. P. Hratchian, 
 J. V. Ortiz, A. F. Izmaylov, J. L. Sonnenberg, D. Williams-Young, 
 F. Ding, F. Lipparini, F. Egidi, J. Goings, B. Peng, A. Petrone, 
 T. Henderson, D. Ranasinghe, V. G. Zakrzewski, J. Gao, N. Rega, 
 G. Zheng, W. Liang, M. Hada, M. Ehara, K. Toyota, R. Fukuda, 
 J. Hasegawa, M. Ishida, T. Nakajima, Y. Honda, O. Kitao, H. Nakai, 
 T. Vreven, K. Throssell, J. A. Montgomery, Jr., J. E. Peralta, 
 F. Ogliaro, M. J. Bearpark, J. J. Heyd, E. N. Brothers, K. N. Kudin, 
 V. N. Staroverov, T. A. Keith, R. Kobayashi, J. Normand, 
 K. Raghavachari, A. P. Rendell, J. C. Burant, S. S. Iyengar, 
 J. Tomasi, M. Cossi, J. M. Millam, M. Klene, C. Adamo, R. Cammi, 
 J. W. Ochterski, R. L. Martin, K. Morokuma, O. Farkas, 
 J. B. Foresman, and D. J. Fox, Gaussian, Inc., Wallingford CT, 2019.
 
 ******************************************
 Gaussian 16:  ES64L-G16RevC.02  7-Dec-2021
                24-Jun-2026 
 ******************************************
 %chk=BSiOx_cpx.chk
 %nprocshared=8
 Will use up to    8 processors via shared memory.
 %mem=14GB
 ----------------------------------------------------------------------
 #p B3LYP/def2SVP EmpiricalDispersion=GD3BJ opt=(maxcycles=200) scf=xqc
  SCRF=(SMD,Solvent=Tetrahydrofuran) int=ultrafine
 ----------------------------------------------------------------------
 1/6=200,18=20,19=15,26=6,38=1/1,3;
 2/9=110,12=2,17=6,18=5,40=1/2;
 3/5=43,7=101,11=2,25=1,30=1,70=32201,71=1,72=20,74=-5,75=-5,124=41/1,2,3;
 4//1;
 5/5=2,8=3,13=1,38=5,53=20/2,8;
 6/7=2,8=2,9=2,10=2,28=1/1;
 7//1,2,3,16;
 1/6=200,18=20,19=15,26=6/3(2);
 2/9=110/2;
 99//99;
 2/9=110/2;
 3/5=43,7=101,11=2,25=1,30=1,70=32205,71=1,72=20,74=-5,75=-5,124=41/1,2,3;
 4/5=5,16=3,69=1/1;
 5/5=2,8=3,13=1,38=5,53=20/2,8;
 7//1,2,3,16;
 1/6=200,18=20,19=15,26=6/3(-5);
 2/9=110/2;
 6/7=2,8=2,9=2,10=2,19=2,28=1/1;
 99/9=1/99;
 Leave Link    1 at Wed Jun 24 01:11:46 2026, MaxMem=  1879048192 cpu:               1.6 elap:               0.1
 (Enter /CH/g16/l101.exe)
 ----------------------
 BSiOx+AlCl4(-) restart
 ----------------------
 Symbolic Z-matrix:
 Charge = -1 Multiplicity = 1
 B                     2.50707   1.80012   0.21627 
 O                     3.12833   0.7189   -0.34384 
 Si                    3.13225  -0.9191    0.06416 
 H                     1.93531   1.70745   1.28002 
 H                     2.66563   2.87907  -0.31385 
 H                     2.17968  -1.17317   1.1742 
 H                     2.7782   -1.69226  -1.15037 
 H                     4.51888  -1.26768   0.48373 
 Al                   -1.18185  -0.03821  -0.00112 
 Cl                   -0.11383   1.53709  -1.06154 
 Cl                   -0.52224  -1.95391  -0.75683 
 Cl                   -3.30085   0.21281  -0.33945 
 Cl                   -0.77645   0.09572   2.11734 
 
 Add virtual bond connecting atoms Cl10       and B1         Dist= 5.53D+00.
 ITRead=  0  0  0  0  0  0  0  0  0  0  0  0  0
 MicOpt= -1 -1 -1 -1 -1 -1 -1 -1 -1 -1 -1 -1 -1
 NAtoms=     13 NQM=       13 NQMF=       0 NMMI=      0 NMMIF=      0
                NMic=       0 NMicF=      0.
                    Isotopes and Nuclear Properties:
 (Nuclear quadrupole moments (NQMom) in fm**2, nuclear magnetic moments (NMagM)
  in nuclear magnetons)

  Atom         1           2           3           4           5           6           7           8           9          10
 IAtWgt=          11          16          28           1           1           1           1           1          27          35
 AtmWgt=  11.0093053  15.9949146  27.9769284   1.0078250   1.0078250   1.0078250   1.0078250   1.0078250  26.9815413  34.9688527
 NucSpn=           3           0           0           1           1           1           1           1           5           3
 AtZEff=  -0.0000000  -0.0000000  -0.0000000  -0.0000000  -0.0000000  -0.0000000  -0.0000000  -0.0000000  -0.0000000  -0.0000000
 NQMom=    4.0590000   0.0000000   0.0000000   0.0000000   0.0000000   0.0000000   0.0000000   0.0000000  14.6600000  -8.1650000
 NMagM=    2.6886370   0.0000000   0.0000000   2.7928460   2.7928460   2.7928460   2.7928460   2.7928460   3.6415040   0.8218740
 AtZNuc=   5.0000000   8.0000000  14.0000000   1.0000000   1.0000000   1.0000000   1.0000000   1.0000000  13.0000000  17.0000000

  Atom        11          12          13
 IAtWgt=          35          35          35
 AtmWgt=  34.9688527  34.9688527  34.9688527
 NucSpn=           3           3           3
 AtZEff=  -0.0000000  -0.0000000  -0.0000000
 NQMom=   -8.1650000  -8.1650000  -8.1650000
 NMagM=    0.8218740   0.8218740   0.8218740
 AtZNuc=  17.0000000  17.0000000  17.0000000
 Leave Link  101 at Wed Jun 24 01:11:47 2026, MaxMem=  1879048192 cpu:               0.4 elap:               0.3
 (Enter /CH/g16/l103.exe)

 GradGradGradGradGradGradGradGradGradGradGradGradGradGradGradGradGradGrad
 Berny optimization.
 Initialization pass.
                           ----------------------------
                           !    Initial Parameters    !
                           ! (Angstroms and Degrees)  !
 --------------------------                            --------------------------
 ! Name  Definition              Value          Derivative Info.                !
 --------------------------------------------------------------------------------
 ! R1    R(1,2)                  1.367          estimate D2E/DX2                !
 ! R2    R(1,4)                  1.2112         estimate D2E/DX2                !
 ! R3    R(1,5)                  1.2126         estimate D2E/DX2                !
 ! R4    R(1,10)                 2.9276         estimate D2E/DX2                !
 ! R5    R(2,3)                  1.6881         estimate D2E/DX2                !
 ! R6    R(3,6)                  1.4846         estimate D2E/DX2                !
 ! R7    R(3,7)                  1.4826         estimate D2E/DX2                !
 ! R8    R(3,8)                  1.4901         estimate D2E/DX2                !
 ! R9    R(9,10)                 2.1787         estimate D2E/DX2                !
 ! R10   R(9,11)                 2.1624         estimate D2E/DX2                !
 ! R11   R(9,12)                 2.1605         estimate D2E/DX2                !
 ! R12   R(9,13)                 2.1611         estimate D2E/DX2                !
 ! A1    A(2,1,4)              120.9215         estimate D2E/DX2                !
 ! A2    A(2,1,5)              117.7248         estimate D2E/DX2                !
 ! A3    A(2,1,10)              99.0302         estimate D2E/DX2                !
 ! A4    A(4,1,5)              120.9151         estimate D2E/DX2                !
 ! A5    A(4,1,10)              87.3552         estimate D2E/DX2                !
 ! A6    A(5,1,10)              90.3547         estimate D2E/DX2                !
 ! A7    A(1,2,3)              132.0291         estimate D2E/DX2                !
 ! A8    A(2,3,6)              110.1991         estimate D2E/DX2                !
 ! A9    A(2,3,7)              107.9067         estimate D2E/DX2                !
 ! A10   A(2,3,8)              107.2906         estimate D2E/DX2                !
 ! A11   A(6,3,7)              111.717          estimate D2E/DX2                !
 ! A12   A(6,3,8)              110.2743         estimate D2E/DX2                !
 ! A13   A(7,3,8)              109.3228         estimate D2E/DX2                !
 ! A14   A(10,9,11)            108.7187         estimate D2E/DX2                !
 ! A15   A(10,9,12)            108.6974         estimate D2E/DX2                !
 ! A16   A(10,9,13)            109.8987         estimate D2E/DX2                !
 ! A17   A(11,9,12)            110.3272         estimate D2E/DX2                !
 ! A18   A(11,9,13)            109.8931         estimate D2E/DX2                !
 ! A19   A(12,9,13)            109.2873         estimate D2E/DX2                !
 ! A20   A(1,10,9)             106.9402         estimate D2E/DX2                !
 ! D1    D(4,1,2,3)              8.9636         estimate D2E/DX2                !
 ! D2    D(5,1,2,3)           -178.5691         estimate D2E/DX2                !
 ! D3    D(10,1,2,3)           -83.3707         estimate D2E/DX2                !
 ! D4    D(2,1,10,9)            78.0631         estimate D2E/DX2                !
 ! D5    D(4,1,10,9)           -42.8358         estimate D2E/DX2                !
 ! D6    D(5,1,10,9)          -163.769          estimate D2E/DX2                !
 ! D7    D(1,2,3,6)              5.6281         estimate D2E/DX2                !
 ! D8    D(1,2,3,7)            127.8515         estimate D2E/DX2                !
 ! D9    D(1,2,3,8)           -114.4529         estimate D2E/DX2                !
 ! D10   D(11,9,10,1)          -81.4655         estimate D2E/DX2                !
 ! D11   D(12,9,10,1)          158.4092         estimate D2E/DX2                !
 ! D12   D(13,9,10,1)           38.8481         estimate D2E/DX2                !
 --------------------------------------------------------------------------------
 Trust Radius=3.00D-01 FncErr=5.00D-06 GrdErr=5.00D-06 EigMax=2.50D+02 EigMin=1.00D-04
 Number of steps in this run=    100 maximum allowed number of steps=    100.
 GradGradGradGradGradGradGradGradGradGradGradGradGradGradGradGradGradGrad

 Leave Link  103 at Wed Jun 24 01:11:47 2026, MaxMem=  1879048192 cpu:               0.0 elap:               0.0
 (Enter /CH/g16/l202.exe)
                          Input orientation:                          
 ---------------------------------------------------------------------
 Center     Atomic      Atomic             Coordinates (Angstroms)
 Number     Number       Type             X           Y           Z
 ---------------------------------------------------------------------
      1          5           0        2.507070    1.800120    0.216270
      2          8           0        3.128330    0.718900   -0.343840
      3         14           0        3.132250   -0.919100    0.064160
      4          1           0        1.935310    1.707450    1.280020
      5          1           0        2.665630    2.879070   -0.313850
      6          1           0        2.179680   -1.173170    1.174200
      7          1           0        2.778200   -1.692260   -1.150370
      8          1           0        4.518880   -1.267680    0.483730
      9         13           0       -1.181850   -0.038210   -0.001120
     10         17           0       -0.113830    1.537090   -1.061540
     11         17           0       -0.522240   -1.953910   -0.756830
     12         17           0       -3.300850    0.212810   -0.339450
     13         17           0       -0.776450    0.095720    2.117340
 ---------------------------------------------------------------------
                    Distance matrix (angstroms):
                    1          2          3          4          5
     1  B    0.000000
     2  O    1.367013   0.000000
     3  Si   2.794306   1.688053   0.000000
     4  H    1.211223   2.244426   3.132051   0.000000
     5  H    1.212560   2.209372   3.845351   2.108668   0.000000
     6  H    3.140902   2.604671   1.484631   2.892903   4.344087
     7  H    3.760044   2.566471   1.482636   4.263248   4.648601
     8  H    3.678357   2.562226   1.490064   4.019989   4.611530
     9  Al   4.127329   4.389570   4.403599   3.795436   4.838535
    10  Cl   2.927644   3.419960   4.223400   3.116232   3.175744
    11  Cl   4.921015   4.543252   3.885892   4.857352   5.806586
    12  Cl   6.046512   6.449070   6.544379   5.681021   6.535173
    13  Cl   4.159393   4.657582   4.530270   3.263805   5.050311
                    6          7          8          9         10
     6  H    0.000000
     7  H    2.455872   0.000000
     8  H    2.440807   2.424978   0.000000
     9  Al   3.737565   4.442820   5.851923   0.000000
    10  Cl   4.195740   4.335946   5.631749   2.178699   0.000000
    11  Cl   3.411569   3.334102   5.236678   2.162427   3.527992
    12  Cl   5.852204   6.421973   8.001103   2.160472   3.525936
    13  Cl   3.352357   5.148819   5.706843   2.161055   3.552730
                   11         12         13
    11  Cl   0.000000
    12  Cl   3.548176   0.000000
    13  Cl   3.539274   3.524503   0.000000
 Stoichiometry    AlBCl4H5OSi(1-)
 Framework group  C1[X(AlBCl4H5OSi)]
 Deg. of freedom    33
 Full point group                 C1      NOp   1
 Largest Abelian subgroup         C1      NOp   1
 Largest concise Abelian subgroup C1      NOp   1
                         Standard orientation:                         
 ---------------------------------------------------------------------
 Center     Atomic      Atomic             Coordinates (Angstroms)
 Number     Number       Type             X           Y           Z
 ---------------------------------------------------------------------
      1          5           0       -2.507067   -1.800124    0.216271
      2          8           0       -3.128330   -0.718906   -0.343839
      3         14           0       -3.132253    0.919094    0.064161
      4          1           0       -1.935307   -1.707453    1.280021
      5          1           0       -2.665625   -2.879075   -0.313849
      6          1           0       -2.179684    1.173166    1.174201
      7          1           0       -2.778205    1.692255   -1.150369
      8          1           0       -4.518884    1.267671    0.483731
      9         13           0        1.181849    0.038214   -0.001119
     10         17           0        0.113832   -1.537088   -1.061539
     11         17           0        0.522234    1.953913   -0.756829
     12         17           0        3.300849   -0.212801   -0.339449
     13         17           0        0.776449   -0.095717    2.117341
 ---------------------------------------------------------------------
 Rotational constants (GHZ):           0.9531872           0.4141548           0.3900773
 Leave Link  202 at Wed Jun 24 01:11:47 2026, MaxMem=  1879048192 cpu:               0.0 elap:               0.0
 (Enter /CH/g16/l301.exe)
 Standard basis: def2SVP (5D, 7F)
 Ernie: Thresh=  0.10000D-02 Tol=  0.10000D-05 Strict=F.
 There are   169 symmetry adapted cartesian basis functions of A   symmetry.
 There are   161 symmetry adapted basis functions of A   symmetry.
   161 basis functions,   307 primitive gaussians,   169 cartesian basis functions
    57 alpha electrons       57 beta electrons
       nuclear repulsion energy       881.2588658308 Hartrees.
 IExCor=  402 DFT=T Ex+Corr=B3LYP ExCW=0 ScaHFX=  0.200000
 ScaDFX=  0.800000  0.720000  1.000000  0.810000 ScalE2=  1.000000  1.000000
 IRadAn=      5 IRanWt=     -1 IRanGd=            0 ICorTp=0 IEmpDi=141
 NAtoms=   13 NActive=   13 NUniq=   13 SFac= 1.00D+00 NAtFMM=   60 NAOKFM=F Big=F
 Integral buffers will be    131072 words long.
 Raffenetti 2 integral format.
 Two-electron integral symmetry is turned on.
 R6Disp:  Grimme-D3(BJ) Dispersion energy=       -0.0316282491 Hartrees.
 Nuclear repulsion after empirical dispersion term =      881.2272375817 Hartrees.
 ------------------------------------------------------------------------------
 Polarizable Continuum Model (PCM)
 =================================
 Model                : PCM.
 Atomic radii         : SMD-Coulomb.
 Polarization charges : Total charges.
 Charge compensation  : None.
 Solution method      : On-the-fly selection.
 Cavity type          : VdW (van der Waals Surface) (Alpha=1.000).
 Cavity algorithm     : GePol (No added spheres)
                        Default sphere list used, NSphG=   13.
                        Lebedev-Laikov grids with approx.  5.0 points / Ang**2.
                        Smoothing algorithm: York/Karplus (Gamma=1.0000).
                        Polarization charges: spherical gaussians, with
                                              point-specific exponents (IZeta= 3).
                        Self-potential: point-specific (ISelfS= 7).
                        Self-field    : sphere-specific E.n sum rule (ISelfD= 2).
 1st derivatives      : Analytical E(r).r(x)/FMM algorithm (CHGder, D1EAlg=3).
                        Cavity 1st derivative terms included.
 Solvent              : TetraHydroFuran, Eps=   7.425700 Eps(inf)=   1.974025
 ------------------------------------------------------------------------------
 Spheres list:
 ISph  on   Nord     Re0    Alpha      Xe            Ye            Ze
    1   B      1    1.8000  1.000     -2.507067     -1.800124      0.216271
    2   O      2    2.2940  1.000     -3.128330     -0.718906     -0.343839
    3  Si      3    2.4700  1.000     -3.132253      0.919094      0.064161
    4   H      4    1.2000  1.000     -1.935307     -1.707453      1.280021
    5   H      5    1.2000  1.000     -2.665625     -2.879075     -0.313849
    6   H      6    1.2000  1.000     -2.179684      1.173166      1.174201
    7   H      7    1.2000  1.000     -2.778205      1.692255     -1.150369
    8   H      8    1.2000  1.000     -4.518884      1.267671      0.483731
    9  Al      9    2.3000  1.000      1.181849      0.038214     -0.001119
   10  Cl     10    2.3800  1.000      0.113832     -1.537088     -1.061539
   11  Cl     11    2.3800  1.000      0.522234      1.953913     -0.756829
   12  Cl     12    2.3800  1.000      3.300849     -0.212801     -0.339449
   13  Cl     13    2.3800  1.000      0.776449     -0.095717      2.117341
 ------------------------------------------------------------------------------
 GePol: Number of generator spheres                  =      13
 GePol: Total number of spheres                      =      13
 GePol: Number of exposed spheres                    =      13 (100.00%)
 GePol: Number of points                             =    1838
 GePol: Average weight of points                     =       0.14
 GePol: Minimum weight of points                     =   0.35D-09
 GePol: Maximum weight of points                     =    0.19536
 GePol: Number of points with low weight             =      64
 GePol: Fraction of low-weight points (<1% of avg)   =       3.48%
 GePol: Cavity surface area                          =    259.337 Ang**2
 GePol: Cavity volume                                =    284.331 Ang**3
 ------------------------------------------------------------------------------
 Atomic radii for non-electrostatic terms: SMD-CDS.
 ------------------------------------------------------------------------------
 PCM non-electrostatic energy =        -0.0031260179 Hartrees.
 Nuclear repulsion after PCM non-electrostatic terms =      881.2241115638 Hartrees.
 Leave Link  301 at Wed Jun 24 01:11:47 2026, MaxMem=  1879048192 cpu:               0.1 elap:               0.0
 (Enter /CH/g16/l302.exe)
 NPDir=0 NMtPBC=     1 NCelOv=     1 NCel=       1 NClECP=     1 NCelD=      1
         NCelK=      1 NCelE2=     1 NClLst=     1 CellRange=     0.0.
 One-electron integrals computed using PRISM.
 One-electron integral symmetry used in STVInt
   1 Symmetry operations used in ECPInt.
 ECPInt:  NShTT=    2850 NPrTT=   12582 LenC2=    2661 LenP2D=    8030.
 LDataN:  DoStor=T MaxTD1= 4 Len=   56
 NBasis=   161 RedAO= T EigKep=  8.16D-03  NBF=   161
 NBsUse=   161 1.00D-06 EigRej= -1.00D+00 NBFU=   161
 Precomputing XC quadrature grid using
 IXCGrd= 4 IRadAn=           5 IRanWt=          -1 IRanGd=           0 AccXCQ= 0.00D+00.
 Generated NRdTot=       0 NPtTot=           0 NUsed=           0 NTot=          32
 NSgBfM=   167   167   167   167   167 MxSgAt=    13 MxSgA2=    13.
 Leave Link  302 at Wed Jun 24 01:11:47 2026, MaxMem=  1879048192 cpu:               0.5 elap:               0.1
 (Enter /CH/g16/l303.exe)
 DipDrv:  MaxL=1.
 Leave Link  303 at Wed Jun 24 01:11:47 2026, MaxMem=  1879048192 cpu:               0.1 elap:               0.0
 (Enter /CH/g16/l401.exe)
 ExpMin= 5.44D-02 ExpMax= 1.04D+04 ExpMxC= 1.57D+03 IAcc=3 IRadAn=         5 AccDes= 0.00D+00
 Harris functional with IExCor=  402 and IRadAn=       5 diagonalized for initial guess.
 HarFok:  IExCor=  402 AccDes= 0.00D+00 IRadAn=         5 IDoV= 1 UseB2=F ITyADJ=14
 ICtDFT=  3500011 ScaDFX=  1.000000  1.000000  1.000000  1.000000
 FoFCou: FMM=F IPFlag=           0 FMFlag=      100000 FMFlg1=           0
         NFxFlg=           0 DoJE=T BraDBF=F KetDBF=T FulRan=T
         wScrn=  0.000000 ICntrl=       500 IOpCl=  0 I1Cent=   200000004 NGrid=           0
         NMat0=    1 NMatS0=      1 NMatT0=    0 NMatD0=    1 NMtDS0=    0 NMtDT0=    0
 Petite list used in FoFCou.
 Harris En= -2475.26242630223    
 JPrj=0 DoOrth=F DoCkMO=F.
 Leave Link  401 at Wed Jun 24 01:11:47 2026, MaxMem=  1879048192 cpu:               1.5 elap:               0.2
 (Enter /CH/g16/l502.exe)
 Integral symmetry usage will be decided dynamically.
 Closed shell SCF:
 Using DIIS extrapolation, IDIIS=  1040.
 NGot=  1879048192 LenX=  1878987600 LenY=  1878958598
 Requested convergence on RMS density matrix=1.00D-08 within  32 cycles.
 Requested convergence on MAX density matrix=1.00D-06.
 Requested convergence on             energy=1.00D-06.
 No special actions if energy rises.
 Fock matrices will be formed incrementally for  20 cycles.

 Cycle   1  Pass 1  IDiag  1:
 FoFJK:  IHMeth= 1 ICntrl=       0 DoSepK=F KAlg= 0 I1Cent=           0 FoldK=F
 IRaf= 890000000 NMat=       1 IRICut=       1 DoRegI=T DoRafI=F ISym2E= 0 IDoP0=0 IntGTp=1.
 FoFCou: FMM=F IPFlag=           0 FMFlag=      100000 FMFlg1=           0
         NFxFlg=           0 DoJE=F BraDBF=F KetDBF=F FulRan=T
         wScrn=  0.000000 ICntrl=         0 IOpCl=  0 I1Cent=           0 NGrid=           0
         NMat0=    1 NMatS0=      1 NMatT0=    0 NMatD0=    1 NMtDS0=    0 NMtDT0=    0
 Symmetry not used in FoFCou.
 Inv3:  Mode=1 IEnd=    10134732.
 Iteration    1 A*A^-1 deviation from unit magnitude is 3.11D-15 for    253.
 Iteration    1 A*A^-1 deviation from orthogonality  is 1.86D-15 for   1521   1088.
 Iteration    1 A^-1*A deviation from unit magnitude is 3.33D-15 for    253.
 Iteration    1 A^-1*A deviation from orthogonality  is 1.89D-15 for   1737     44.
 E= -2475.52549257242    
 DIIS: error= 2.17D-02 at cycle   1 NSaved=   1.
 NSaved= 1 IEnMin= 1 EnMin= -2475.52549257242     IErMin= 1 ErrMin= 2.17D-02
 ErrMax= 2.17D-02  0.00D+00 EMaxC= 1.00D-01 BMatC= 1.22D-01 BMatP= 1.22D-01
 IDIUse=3 WtCom= 7.83D-01 WtEn= 2.17D-01
 Coeff-Com:  0.100D+01
 Coeff-En:   0.100D+01
 Coeff:      0.100D+01
 Gap=     0.326 Goal=   None    Shift=    0.000
 GapD=    0.326 DampG=1.000 DampE=0.500 DampFc=0.5000 IDamp=-1.
 Damping current iteration by 5.00D-01
 RMSDP=4.98D-03 MaxDP=1.60D-01              OVMax= 1.99D-01

 Cycle   2  Pass 1  IDiag  1:
 RMSU=  2.49D-03    CP:  9.98D-01
 E= -2475.55104203555     Delta-E=       -0.025549463128 Rises=F Damp=T
 DIIS: error= 1.12D-02 at cycle   2 NSaved=   2.
 NSaved= 2 IEnMin= 2 EnMin= -2475.55104203555     IErMin= 2 ErrMin= 1.12D-02
 ErrMax= 1.12D-02  0.00D+00 EMaxC= 1.00D-01 BMatC= 2.14D-02 BMatP= 1.22D-01
 IDIUse=3 WtCom= 8.88D-01 WtEn= 1.12D-01
 Coeff-Com:  0.200D+00 0.800D+00
 Coeff-En:   0.340D+00 0.660D+00
 Coeff:      0.216D+00 0.784D+00
 Gap=     0.333 Goal=   None    Shift=    0.000
 RMSDP=1.41D-03 MaxDP=3.39D-02 DE=-2.55D-02 OVMax= 1.23D-01

 Cycle   3  Pass 1  IDiag  1:
 RMSU=  1.22D-03    CP:  9.97D-01  7.12D-01
 E= -2475.61705644992     Delta-E=       -0.066014414369 Rises=F Damp=F
 DIIS: error= 7.48D-03 at cycle   3 NSaved=   3.
 NSaved= 3 IEnMin= 3 EnMin= -2475.61705644992     IErMin= 3 ErrMin= 7.48D-03
 ErrMax= 7.48D-03  0.00D+00 EMaxC= 1.00D-01 BMatC= 7.55D-03 BMatP= 2.14D-02
 IDIUse=3 WtCom= 9.25D-01 WtEn= 7.48D-02
 Coeff-Com: -0.490D-01 0.349D+00 0.699D+00
 Coeff-En:   0.000D+00 0.000D+00 0.100D+01
 Coeff:     -0.453D-01 0.323D+00 0.722D+00
 Gap=     0.274 Goal=   None    Shift=    0.000
 RMSDP=6.19D-04 MaxDP=1.97D-02 DE=-6.60D-02 OVMax= 2.50D-02

 Cycle   4  Pass 1  IDiag  1:
 RMSU=  3.85D-04    CP:  9.98D-01  7.87D-01  6.33D-01
 E= -2475.62289294241     Delta-E=       -0.005836492494 Rises=F Damp=F
 DIIS: error= 1.70D-03 at cycle   4 NSaved=   4.
 NSaved= 4 IEnMin= 4 EnMin= -2475.62289294241     IErMin= 4 ErrMin= 1.70D-03
 ErrMax= 1.70D-03  0.00D+00 EMaxC= 1.00D-01 BMatC= 6.61D-04 BMatP= 7.55D-03
 IDIUse=3 WtCom= 9.83D-01 WtEn= 1.70D-02
 Coeff-Com: -0.253D-01 0.103D+00 0.329D+00 0.593D+00
 Coeff-En:   0.000D+00 0.000D+00 0.781D-02 0.992D+00
 Coeff:     -0.249D-01 0.102D+00 0.324D+00 0.600D+00
 Gap=     0.274 Goal=   None    Shift=    0.000
 RMSDP=2.02D-04 MaxDP=8.68D-03 DE=-5.84D-03 OVMax= 5.97D-03

 Cycle   5  Pass 1  IDiag  1:
 RMSU=  7.26D-05    CP:  9.97D-01  7.98D-01  7.17D-01  5.93D-01
 E= -2475.62354523213     Delta-E=       -0.000652289718 Rises=F Damp=F
 DIIS: error= 3.16D-04 at cycle   5 NSaved=   5.
 NSaved= 5 IEnMin= 5 EnMin= -2475.62354523213     IErMin= 5 ErrMin= 3.16D-04
 ErrMax= 3.16D-04  0.00D+00 EMaxC= 1.00D-01 BMatC= 1.49D-05 BMatP= 6.61D-04
 IDIUse=3 WtCom= 9.97D-01 WtEn= 3.16D-03
 Coeff-Com: -0.833D-02 0.263D-01 0.904D-01 0.219D+00 0.673D+00
 Coeff-En:   0.000D+00 0.000D+00 0.000D+00 0.000D+00 0.100D+01
 Coeff:     -0.830D-02 0.262D-01 0.901D-01 0.218D+00 0.674D+00
 Gap=     0.274 Goal=   None    Shift=    0.000
 RMSDP=3.46D-05 MaxDP=2.30D-03 DE=-6.52D-04 OVMax= 1.19D-03

 Cycle   6  Pass 1  IDiag  1:
 RMSU=  2.29D-05    CP:  9.97D-01  7.97D-01  7.13D-01  6.38D-01  7.40D-01
 E= -2475.62356042576     Delta-E=       -0.000015193629 Rises=F Damp=F
 DIIS: error= 9.52D-05 at cycle   6 NSaved=   6.
 NSaved= 6 IEnMin= 6 EnMin= -2475.62356042576     IErMin= 6 ErrMin= 9.52D-05
 ErrMax= 9.52D-05  0.00D+00 EMaxC= 1.00D-01 BMatC= 1.34D-06 BMatP= 1.49D-05
 IDIUse=1 WtCom= 1.00D+00 WtEn= 0.00D+00
 Coeff-Com: -0.174D-02 0.313D-02 0.102D-01 0.408D-01 0.283D+00 0.664D+00
 Coeff:     -0.174D-02 0.313D-02 0.102D-01 0.408D-01 0.283D+00 0.664D+00
 Gap=     0.274 Goal=   None    Shift=    0.000
 RMSDP=9.74D-06 MaxDP=6.37D-04 DE=-1.52D-05 OVMax= 3.09D-04

 Cycle   7  Pass 1  IDiag  1:
 RMSU=  3.33D-06    CP:  9.97D-01  7.98D-01  7.14D-01  6.37D-01  8.06D-01
                    CP:  6.66D-01
 E= -2475.62356201827     Delta-E=       -0.000001592511 Rises=F Damp=F
 DIIS: error= 9.56D-06 at cycle   7 NSaved=   7.
 NSaved= 7 IEnMin= 7 EnMin= -2475.62356201827     IErMin= 7 ErrMin= 9.56D-06
 ErrMax= 9.56D-06  0.00D+00 EMaxC= 1.00D-01 BMatC= 2.36D-08 BMatP= 1.34D-06
 IDIUse=1 WtCom= 1.00D+00 WtEn= 0.00D+00
 Coeff-Com: -0.297D-03 0.907D-04-0.491D-03 0.350D-02 0.554D-01 0.181D+00
 Coeff-Com:  0.760D+00
 Coeff:     -0.297D-03 0.907D-04-0.491D-03 0.350D-02 0.554D-01 0.181D+00
 Coeff:      0.760D+00
 Gap=     0.274 Goal=   None    Shift=    0.000
 RMSDP=1.44D-06 MaxDP=4.26D-05 DE=-1.59D-06 OVMax= 3.62D-05

 Cycle   8  Pass 1  IDiag  1:
 RMSU=  1.00D-06    CP:  9.97D-01  7.98D-01  7.14D-01  6.37D-01  8.06D-01
                    CP:  6.93D-01  8.07D-01
 E= -2475.62356204250     Delta-E=       -0.000000024227 Rises=F Damp=F
 DIIS: error= 2.34D-06 at cycle   8 NSaved=   8.
 NSaved= 8 IEnMin= 8 EnMin= -2475.62356204250     IErMin= 8 ErrMin= 2.34D-06
 ErrMax= 2.34D-06  0.00D+00 EMaxC= 1.00D-01 BMatC= 1.77D-09 BMatP= 2.36D-08
 IDIUse=1 WtCom= 1.00D+00 WtEn= 0.00D+00
 Coeff-Com: -0.368D-05-0.115D-03-0.840D-03-0.158D-02 0.216D-03 0.194D-01
 Coeff-Com:  0.267D+00 0.716D+00
 Coeff:     -0.368D-05-0.115D-03-0.840D-03-0.158D-02 0.216D-03 0.194D-01
 Coeff:      0.267D+00 0.716D+00
 Gap=     0.274 Goal=   None    Shift=    0.000
 RMSDP=3.76D-07 MaxDP=1.66D-05 DE=-2.42D-08 OVMax= 7.25D-06

 Cycle   9  Pass 1  IDiag  1:
 RMSU=  1.53D-07    CP:  9.97D-01  7.98D-01  7.14D-01  6.37D-01  8.07D-01
                    CP:  6.96D-01  8.71D-01  7.53D-01
 E= -2475.62356204432     Delta-E=       -0.000000001819 Rises=F Damp=F
 DIIS: error= 2.78D-07 at cycle   9 NSaved=   9.
 NSaved= 9 IEnMin= 9 EnMin= -2475.62356204432     IErMin= 9 ErrMin= 2.78D-07
 ErrMax= 2.78D-07  0.00D+00 EMaxC= 1.00D-01 BMatC= 1.90D-11 BMatP= 1.77D-09
 IDIUse=1 WtCom= 1.00D+00 WtEn= 0.00D+00
 Coeff-Com:  0.219D-05-0.203D-04-0.158D-03-0.384D-03-0.944D-03 0.282D-03
 Coeff-Com:  0.412D-01 0.158D+00 0.802D+00
 Coeff:      0.219D-05-0.203D-04-0.158D-03-0.384D-03-0.944D-03 0.282D-03
 Coeff:      0.412D-01 0.158D+00 0.802D+00
 Gap=     0.274 Goal=   None    Shift=    0.000
 RMSDP=5.04D-08 MaxDP=2.52D-06 DE=-1.82D-09 OVMax= 1.41D-06

 Cycle  10  Pass 1  IDiag  1:
 RMSU=  3.78D-08    CP:  9.97D-01  7.98D-01  7.14D-01  6.37D-01  8.07D-01
                    CP:  6.96D-01  8.72D-01  7.74D-01  8.65D-01
 E= -2475.62356204437     Delta-E=       -0.000000000047 Rises=F Damp=F
 DIIS: error= 1.43D-07 at cycle  10 NSaved=  10.
 NSaved=10 IEnMin=10 EnMin= -2475.62356204437     IErMin=10 ErrMin= 1.43D-07
 ErrMax= 1.43D-07  0.00D+00 EMaxC= 1.00D-01 BMatC= 3.23D-12 BMatP= 1.90D-11
 IDIUse=1 WtCom= 1.00D+00 WtEn= 0.00D+00
 Coeff-Com:  0.111D-05-0.286D-05-0.233D-04-0.771D-04-0.451D-03-0.106D-02
 Coeff-Com:  0.257D-02 0.277D-01 0.325D+00 0.647D+00
 Coeff:      0.111D-05-0.286D-05-0.233D-04-0.771D-04-0.451D-03-0.106D-02
 Coeff:      0.257D-02 0.277D-01 0.325D+00 0.647D+00
 Gap=     0.274 Goal=   None    Shift=    0.000
 RMSDP=1.71D-08 MaxDP=7.82D-07 DE=-4.68D-11 OVMax= 4.94D-07

 Cycle  11  Pass 1  IDiag  1:
 RMSU=  7.95D-09    CP:  9.97D-01  7.98D-01  7.14D-01  6.37D-01  8.07D-01
                    CP:  6.96D-01  8.73D-01  7.75D-01  9.05D-01  6.44D-01
 E= -2475.62356204435     Delta-E=        0.000000000015 Rises=F Damp=F
 DIIS: error= 1.78D-08 at cycle  11 NSaved=  11.
 NSaved=11 IEnMin=10 EnMin= -2475.62356204437     IErMin=11 ErrMin= 1.78D-08
 ErrMax= 1.78D-08  0.00D+00 EMaxC= 1.00D-01 BMatC= 1.08D-13 BMatP= 3.23D-12
 IDIUse=1 WtCom= 1.00D+00 WtEn= 0.00D+00
 Coeff-Com:  0.109D-06 0.663D-06 0.238D-05 0.353D-05-0.761D-04-0.301D-03
 Coeff-Com: -0.164D-02-0.161D-02 0.317D-01 0.166D+00 0.805D+00
 Coeff:      0.109D-06 0.663D-06 0.238D-05 0.353D-05-0.761D-04-0.301D-03
 Coeff:     -0.164D-02-0.161D-02 0.317D-01 0.166D+00 0.805D+00
 Gap=     0.274 Goal=   None    Shift=    0.000
 RMSDP=2.79D-09 MaxDP=9.68D-08 DE= 1.50D-11 OVMax= 7.64D-08

 Error on total polarization charges =  0.01200
 SCF Done:  E(RB3LYP) =  -2475.62356204     A.U. after   11 cycles
            NFock= 11  Conv=0.28D-08     -V/T= 2.0029
 KE= 2.468567660357D+03 PE=-7.665899746859D+03 EE= 1.840484412893D+03
 SMD-CDS (non-electrostatic) energy       (kcal/mol) =      -1.96
 (included in total energy above)
 Leave Link  502 at Wed Jun 24 01:11:52 2026, MaxMem=  1879048192 cpu:              35.7 elap:               5.1
 (Enter /CH/g16/l508.exe)
 QCSCF skips out because SCF is already converged.
 Leave Link  508 at Wed Jun 24 01:11:52 2026, MaxMem=  1879048192 cpu:               0.0 elap:               0.0
 (Enter /CH/g16/l601.exe)
 Copying SCF densities to generalized density rwf, IOpCl= 0 IROHF=0.

 **********************************************************************

            Population analysis using the SCF Density.

 **********************************************************************

 Orbital symmetries:
       Occupied  (A) (A) (A) (A) (A) (A) (A) (A) (A) (A) (A) (A)
                 (A) (A) (A) (A) (A) (A) (A) (A) (A) (A) (A) (A)
                 (A) (A) (A) (A) (A) (A) (A) (A) (A) (A) (A) (A)
                 (A) (A) (A) (A) (A) (A) (A) (A) (A) (A) (A) (A)
                 (A) (A) (A) (A) (A) (A) (A) (A) (A)
       Virtual   (A) (A) (A) (A) (A) (A) (A) (A) (A) (A) (A) (A)
                 (A) (A) (A) (A) (A) (A) (A) (A) (A) (A) (A) (A)
                 (A) (A) (A) (A) (A) (A) (A) (A) (A) (A) (A) (A)
                 (A) (A) (A) (A) (A) (A) (A) (A) (A) (A) (A) (A)
                 (A) (A) (A) (A) (A) (A) (A) (A) (A) (A) (A) (A)
                 (A) (A) (A) (A) (A) (A) (A) (A) (A) (A) (A) (A)
                 (A) (A) (A) (A) (A) (A) (A) (A) (A) (A) (A) (A)
                 (A) (A) (A) (A) (A) (A) (A) (A) (A) (A) (A) (A)
                 (A) (A) (A) (A) (A) (A) (A) (A)
 The electronic state is 1-A.
 Alpha  occ. eigenvalues -- -101.44452-101.43771-101.43644-101.43529 -66.12638
 Alpha  occ. eigenvalues --  -56.05327 -19.12490  -9.39885  -9.39252  -9.39121
 Alpha  occ. eigenvalues --   -9.39033  -7.16376  -7.16028  -7.15967  -7.15754
 Alpha  occ. eigenvalues --   -7.15625  -7.15539  -7.15363  -7.15347  -7.15226
 Alpha  occ. eigenvalues --   -7.15221  -7.15133  -7.15131  -6.76928  -5.29161
 Alpha  occ. eigenvalues --   -4.14612  -3.65534  -3.65255  -3.65229  -2.70238
 Alpha  occ. eigenvalues --   -2.70219  -2.70217  -0.97409  -0.77103  -0.75267
 Alpha  occ. eigenvalues --   -0.74884  -0.74760  -0.56545  -0.46909  -0.40807
 Alpha  occ. eigenvalues --   -0.40362  -0.39310  -0.38433  -0.33674  -0.33374
 Alpha  occ. eigenvalues --   -0.33206  -0.32565  -0.31395  -0.28938  -0.28639
 Alpha  occ. eigenvalues --   -0.28233  -0.28172  -0.28128  -0.27046  -0.26183
 Alpha  occ. eigenvalues --   -0.26101  -0.25954
 Alpha virt. eigenvalues --    0.01454   0.03811   0.07179   0.09086   0.09448
 Alpha virt. eigenvalues --    0.10731   0.12015   0.12284   0.12446   0.15543
 Alpha virt. eigenvalues --    0.17284   0.18402   0.22883   0.23815   0.28885
 Alpha virt. eigenvalues --    0.29175   0.31072   0.31279   0.32762   0.34752
 Alpha virt. eigenvalues --    0.39105   0.39988   0.40651   0.41672   0.44174
 Alpha virt. eigenvalues --    0.46193   0.48831   0.50454   0.51170   0.52531
 Alpha virt. eigenvalues --    0.55857   0.56482   0.58556   0.64226   0.64868
 Alpha virt. eigenvalues --    0.69032   0.70055   0.70853   0.72086   0.76559
 Alpha virt. eigenvalues --    0.80713   0.80842   0.81252   0.82838   0.82930
 Alpha virt. eigenvalues --    0.82975   0.83090   0.83314   0.83567   0.84193
 Alpha virt. eigenvalues --    0.84684   0.85813   0.86189   0.86472   0.86991
 Alpha virt. eigenvalues --    0.89314   0.90485   0.91450   0.92417   0.93604
 Alpha virt. eigenvalues --    0.96759   0.97652   0.99738   1.00610   1.00921
 Alpha virt. eigenvalues --    1.01245   1.04891   1.06189   1.08554   1.12369
 Alpha virt. eigenvalues --    1.15011   1.15475   1.16272   1.17297   1.22591
 Alpha virt. eigenvalues --    1.28127   1.33409   1.34662   1.36728   1.37963
 Alpha virt. eigenvalues --    1.38968   1.39077   1.44421   1.46851   1.51940
 Alpha virt. eigenvalues --    1.55600   1.62663   1.68508   1.74197   1.74966
 Alpha virt. eigenvalues --    1.81140   1.85740   1.91251   2.00521   2.15789
 Alpha virt. eigenvalues --    2.19339   2.20795   2.48165   2.56329   2.71946
 Alpha virt. eigenvalues --    2.89230   2.92024   3.24654   3.31292
          Condensed to atoms (all electrons):
               1          2          3          4          5          6
     1  B    3.588743   0.509649  -0.034160   0.358685   0.363879  -0.014206
     2  O    0.509649   7.571010   0.365387  -0.029216  -0.035501  -0.012810
     3  Si  -0.034160   0.365387  11.938019  -0.000750   0.001550   0.388294
     4  H    0.358685  -0.029216  -0.000750   0.852070  -0.072469   0.008552
     5  H    0.363879  -0.035501   0.001550  -0.072469   0.851673  -0.000427
     6  H   -0.014206  -0.012810   0.388294   0.008552  -0.000427   0.765990
     7  H    0.003243  -0.015308   0.374164  -0.000598   0.000200  -0.019600
     8  H    0.000153  -0.015699   0.366069  -0.000486   0.000089  -0.024821
     9  Al  -0.003155   0.000262  -0.000698   0.002440  -0.000017   0.001027
    10  Cl   0.063081  -0.004221   0.003811  -0.010275  -0.006574  -0.000765
    11  Cl  -0.001706  -0.000022   0.013378   0.000010  -0.000007  -0.003079
    12  Cl   0.000025  -0.000000  -0.000000   0.000004  -0.000000   0.000003
    13  Cl  -0.003827   0.000003  -0.007539   0.009767   0.000115   0.010718
               7          8          9         10         11         12
     1  B    0.003243   0.000153  -0.003155   0.063081  -0.001706   0.000025
     2  O   -0.015308  -0.015699   0.000262  -0.004221  -0.000022  -0.000000
     3  Si   0.374164   0.366069  -0.000698   0.003811   0.013378  -0.000000
     4  H   -0.000598  -0.000486   0.002440  -0.010275   0.000010   0.000004
     5  H    0.000200   0.000089  -0.000017  -0.006574  -0.000007  -0.000000
     6  H   -0.019600  -0.024821   0.001027  -0.000765  -0.003079   0.000003
     7  H    0.787485  -0.022320   0.000016  -0.000185   0.001339   0.000000
     8  H   -0.022320   0.815276   0.000302  -0.000007   0.000091   0.000000
     9  Al   0.000016   0.000302  11.035841   0.306393   0.331512   0.345401
    10  Cl  -0.000185  -0.000007   0.306393  17.054261  -0.013600  -0.013292
    11  Cl   0.001339   0.000091   0.331512  -0.013600  17.088497  -0.013420
    12  Cl   0.000000   0.000000   0.345401  -0.013292  -0.013420  17.078731
    13  Cl   0.000058   0.000010   0.334398  -0.012585  -0.013533  -0.014197
              13
     1  B   -0.003827
     2  O    0.000003
     3  Si  -0.007539
     4  H    0.009767
     5  H    0.000115
     6  H    0.010718
     7  H    0.000058
     8  H    0.000010
     9  Al   0.334398
    10  Cl  -0.012585
    11  Cl  -0.013533
    12  Cl  -0.014197
    13  Cl  17.086402
 Mulliken charges:
               1
     1  B    0.169595
     2  O   -0.333534
     3  Si   0.592475
     4  H   -0.117733
     5  H   -0.102510
     6  H   -0.098876
     7  H   -0.108495
     8  H   -0.118656
     9  Al   0.646278
    10  Cl  -0.366040
    11  Cl  -0.389461
    12  Cl  -0.383255
    13  Cl  -0.389789
 Sum of Mulliken charges =  -1.00000
 Mulliken charges with hydrogens summed into heavy atoms:
               1
     1  B   -0.050647
     2  O   -0.333534
     3  Si   0.266448
     9  Al   0.646278
    10  Cl  -0.366040
    11  Cl  -0.389461
    12  Cl  -0.383255
    13  Cl  -0.389789
 Electronic spatial extent (au):  <R**2>=           3012.4862
 Charge=             -1.0000 electrons
 Dipole moment (field-independent basis, Debye):
    X=             -3.8498    Y=              1.5475    Z=              0.2674  Tot=              4.1577
 Quadrupole moment (field-independent basis, Debye-Ang):
   XX=           -112.6272   YY=           -103.0614   ZZ=           -101.6930
   XY=             -4.9673   XZ=             -1.9462   YZ=              0.0147
 Traceless Quadrupole moment (field-independent basis, Debye-Ang):
   XX=             -6.8333   YY=              2.7324   ZZ=              4.1009
   XY=             -4.9673   XZ=             -1.9462   YZ=              0.0147
 Octapole moment (field-independent basis, Debye-Ang**2):
  XXX=             -5.1765  YYY=             10.7211  ZZZ=            -14.3667  XYY=             10.1947
  XXY=             15.8843  XXZ=              9.2804  XZZ=              3.1100  YZZ=              3.0483
  YYZ=              6.5185  XYZ=              2.9368
 Hexadecapole moment (field-independent basis, Debye-Ang**3):
 XXXX=          -2870.5522 YYYY=           -927.8403 ZZZZ=           -653.9927 XXXY=            -19.9847
 XXXZ=              1.6883 YYYX=            -39.7870 YYYZ=              7.4672 ZZZX=             -1.0277
 ZZZY=              4.7554 XXYY=           -603.1470 XXZZ=           -551.6174 YYZZ=           -261.2544
 XXYZ=             -9.8239 YYXZ=              2.1505 ZZXY=             -1.6984
 N-N= 8.812241115638D+02 E-N=-7.665899746026D+03  KE= 2.468567660357D+03
 No NMR shielding tensors so no spin-rotation constants.
 Leave Link  601 at Wed Jun 24 01:11:53 2026, MaxMem=  1879048192 cpu:               0.3 elap:               0.1
 (Enter /CH/g16/l701.exe)
 ... and contract with generalized density number  0.
 Compute integral first derivatives.
 R6Disp: Adding Grimme-D3(BJ) dispersion energy 1st derivatives to the gradient.
   1 Symmetry operations used in ECPInt.
 ECPInt:  NShTT=    2850 NPrTT=   12582 LenC2=    2661 LenP2D=    8030.
 LDataN:  DoStor=T MaxTD1= 5 Len=  102
 D1PCM: PCM CHGder 1st derivatives, ID1Alg=3 FixD1E=F DoIter=F DoCFld=F I1PDM=0.
 GePol: Maximum number of non-zero 1st derivatives   =     398
 Leave Link  701 at Wed Jun 24 01:11:53 2026, MaxMem=  1879048192 cpu:               3.1 elap:               0.4
 (Enter /CH/g16/l702.exe)
 L702 exits ... SP integral derivatives will be done elsewhere.
 Leave Link  702 at Wed Jun 24 01:11:53 2026, MaxMem=  1879048192 cpu:               0.0 elap:               0.0
 (Enter /CH/g16/l703.exe)
 Integral derivatives from FoFJK, PRISM(SPDF).
 Compute integral first derivatives, UseDBF=F ICtDFT=           0.
 Calling FoFJK, ICntrl=      2127 FMM=F ISym2X=0 I1Cent= 0 IOpClX= 0 NMat=1 NMatS=1 NMatT=0.
 FoFJK:  IHMeth= 1 ICntrl=    2127 DoSepK=F KAlg= 0 I1Cent=           0 FoldK=F
 IRaf=         0 NMat=       1 IRICut=       1 DoRegI=T DoRafI=F ISym2E= 0 IDoP0=0 IntGTp=1.
 FoFCou: FMM=F IPFlag=           0 FMFlag=      100000 FMFlg1=         800
         NFxFlg=           0 DoJE=F BraDBF=F KetDBF=F FulRan=T
         wScrn=  0.000000 ICntrl=      2127 IOpCl=  0 I1Cent=           0 NGrid=           0
         NMat0=    1 NMatS0=      1 NMatT0=    0 NMatD0=    1 NMtDS0=    0 NMtDT0=    0
 Symmetry not used in FoFCou.
 Leave Link  703 at Wed Jun 24 01:11:54 2026, MaxMem=  1879048192 cpu:               5.5 elap:               0.7
 (Enter /CH/g16/l716.exe)
 Dipole        =-1.51461652D+00 6.08817269D-01 1.05190079D-01
 ***** Axes restored to original set *****
 -------------------------------------------------------------------
 Center     Atomic                   Forces (Hartrees/Bohr)
 Number     Number              X              Y              Z
 -------------------------------------------------------------------
      1        5           0.004200673   -0.007410116   -0.003489245
      2        8          -0.004426082    0.006743637    0.004186592
      3       14          -0.000111411    0.002341273   -0.000158436
      4        1           0.000393069   -0.000550421   -0.000552966
      5        1           0.000101987   -0.000963462   -0.000081302
      6        1          -0.000131186   -0.000117025    0.000203533
      7        1          -0.000118856   -0.000142001   -0.000027560
      8        1           0.000010892   -0.000077439   -0.000042958
      9       13          -0.000052443   -0.000012637    0.000645817
     10       17          -0.000217125    0.000172708   -0.000093653
     11       17           0.000122406    0.000093625   -0.000093287
     12       17           0.000012949   -0.000039141   -0.000491104
     13       17           0.000215126   -0.000039000   -0.000005433
 -------------------------------------------------------------------
 Cartesian Forces:  Max     0.007410116 RMS     0.002121299
 Leave Link  716 at Wed Jun 24 01:11:54 2026, MaxMem=  1879048192 cpu:               0.0 elap:               0.0
 (Enter /CH/g16/l103.exe)

 GradGradGradGradGradGradGradGradGradGradGradGradGradGradGradGradGradGrad
 Berny optimization.
 FormGI is forming the generalized inverse of G from B-inverse, IUseBI=4.
 Internal  Forces:  Max     0.010780073 RMS     0.001711428
 Search for a local minimum.
 Step number   1 out of a maximum of  100
 All quantities printed in internal units (Hartrees-Bohrs-Radians)
 RMS Force = .17114D-02 SwitMx=.10000D-02 MixMth= 1
 Mixed Optimization -- RFO/linear search
 Second derivative matrix not updated -- first step.
 ITU=  0
     Eigenvalues ---    0.00230   0.01712   0.02657   0.02688   0.03174
     Eigenvalues ---    0.07695   0.10935   0.11060   0.11368   0.12173
     Eigenvalues ---    0.12910   0.16000   0.16000   0.16000   0.16068
     Eigenvalues ---    0.16224   0.17307   0.17556   0.17649   0.20153
     Eigenvalues ---    0.21088   0.21169   0.21204   0.22472   0.23771
     Eigenvalues ---    0.23864   0.25000   0.25000   0.25000   0.25000
     Eigenvalues ---    0.25000   0.37367   0.51555
 RFO step:  Lambda=-3.55770528D-04 EMin= 2.30000000D-03
 Linear search not attempted -- first point.
 Iteration  1 RMS(Cart)=  0.09307678 RMS(Int)=  0.00183656
 Iteration  2 RMS(Cart)=  0.00290215 RMS(Int)=  0.00000252
 Iteration  3 RMS(Cart)=  0.00000328 RMS(Int)=  0.00000210
 Iteration  4 RMS(Cart)=  0.00000000 RMS(Int)=  0.00000210
 ITry= 1 IFail=0 DXMaxC= 2.36D-01 DCOld= 1.00D+10 DXMaxT= 3.00D-01 DXLimC= 3.00D+00 Rises=F
 Variable       Old X    -DE/DX   Delta X   Delta X   Delta X     New X
                                 (Linear)    (Quad)   (Total)
    R1        2.58328  -0.01078   0.00000  -0.02090  -0.02090   2.56238
    R2        2.28888  -0.00063   0.00000  -0.00264  -0.00264   2.28624
    R3        2.29141  -0.00081   0.00000  -0.00340  -0.00340   2.28801
    R4        5.53245  -0.00008   0.00000  -0.00311  -0.00311   5.52933
    R5        3.18996  -0.00195   0.00000  -0.00522  -0.00522   3.18474
    R6        2.80555   0.00025   0.00000   0.00144   0.00144   2.80699
    R7        2.80178   0.00013   0.00000   0.00074   0.00074   2.80252
    R8        2.81581   0.00001   0.00000   0.00008   0.00008   2.81589
    R9        4.11714  -0.00011   0.00000  -0.00057  -0.00057   4.11658
   R10        4.08639  -0.00002   0.00000  -0.00008  -0.00008   4.08631
   R11        4.08270   0.00006   0.00000   0.00028   0.00028   4.08298
   R12        4.08380   0.00004   0.00000   0.00018   0.00018   4.08399
    A1        2.11048  -0.00054   0.00000  -0.00436  -0.00436   2.10612
    A2        2.05469  -0.00008   0.00000  -0.00080  -0.00080   2.05389
    A3        1.72840  -0.00045   0.00000  -0.00233  -0.00233   1.72607
    A4        2.11037   0.00065   0.00000   0.00556   0.00556   2.11593
    A5        1.52464   0.00026   0.00000   0.00082   0.00081   1.52545
    A6        1.57699  -0.00000   0.00000  -0.00111  -0.00111   1.57587
    A7        2.30434  -0.00182   0.00000  -0.00726  -0.00726   2.29709
    A8        1.92334   0.00010   0.00000   0.00063   0.00062   1.92396
    A9        1.88333   0.00014   0.00000   0.00081   0.00081   1.88413
   A10        1.87257   0.00011   0.00000   0.00073   0.00073   1.87331
   A11        1.94983  -0.00018   0.00000  -0.00123  -0.00123   1.94860
   A12        1.92465  -0.00007   0.00000  -0.00036  -0.00036   1.92429
   A13        1.90804  -0.00008   0.00000  -0.00048  -0.00048   1.90757
   A14        1.89750  -0.00065   0.00000  -0.00324  -0.00324   1.89426
   A15        1.89713  -0.00053   0.00000  -0.00193  -0.00194   1.89519
   A16        1.91809   0.00010   0.00000   0.00088   0.00088   1.91897
   A17        1.92557   0.00002   0.00000  -0.00090  -0.00090   1.92467
   A18        1.91800   0.00010   0.00000   0.00009   0.00009   1.91809
   A19        1.90742   0.00094   0.00000   0.00504   0.00504   1.91246
   A20        1.86646  -0.00066   0.00000  -0.00262  -0.00262   1.86384
    D1        0.15644  -0.00024   0.00000  -0.00570  -0.00570   0.15075
    D2       -3.11662   0.00009   0.00000  -0.00175  -0.00175  -3.11837
    D3       -1.45509  -0.00017   0.00000  -0.00446  -0.00446  -1.45955
    D4        1.36246  -0.00036   0.00000  -0.08733  -0.08733   1.27513
    D5       -0.74763   0.00016   0.00000  -0.08294  -0.08294  -0.83057
    D6       -2.85831  -0.00049   0.00000  -0.08856  -0.08855  -2.94686
    D7        0.09823  -0.00014   0.00000  -0.00503  -0.00503   0.09320
    D8        2.23143  -0.00020   0.00000  -0.00564  -0.00564   2.22579
    D9       -1.99758  -0.00018   0.00000  -0.00539  -0.00539  -2.00297
   D10       -1.42184   0.00015   0.00000   0.01636   0.01637  -1.40548
   D11        2.76476   0.00082   0.00000   0.02049   0.02048   2.78525
   D12        0.67803  -0.00007   0.00000   0.01500   0.01500   0.69303
         Item               Value     Threshold  Converged?
 Maximum Force            0.010780     0.000450     NO 
 RMS     Force            0.001711     0.000300     NO 
 Maximum Displacement     0.235788     0.001800     NO 
 RMS     Displacement     0.092886     0.001200     NO 
 Predicted change in Energy=-1.821557D-04
 Lowest energy point so far.  Saving SCF results.
 GradGradGradGradGradGradGradGradGradGradGradGradGradGradGradGradGradGrad

 Leave Link  103 at Wed Jun 24 01:11:54 2026, MaxMem=  1879048192 cpu:               0.0 elap:               0.0
 (Enter /CH/g16/l202.exe)
                          Input orientation:                          
 ---------------------------------------------------------------------
 Center     Atomic      Atomic             Coordinates (Angstroms)
 Number     Number       Type             X           Y           Z
 ---------------------------------------------------------------------
      1          5           0        2.526428    1.814244    0.192623
      2          8           0        3.100894    0.714283   -0.353904
      3         14           0        3.069135   -0.908092    0.101179
      4          1           0        1.978771    1.753850    1.269702
      5          1           0        2.698341    2.874749   -0.365697
      6          1           0        2.144570   -1.102140    1.247442
      7          1           0        2.653426   -1.705578   -1.078046
      8          1           0        4.457134   -1.287910    0.487978
      9         13           0       -1.139423   -0.058443   -0.016982
     10         17           0       -0.126858    1.588927   -1.020130
     11         17           0       -0.449644   -1.917081   -0.880447
     12         17           0       -3.268602    0.159707   -0.312420
     13         17           0       -0.694043   -0.019686    2.097424
 ---------------------------------------------------------------------
                    Distance matrix (angstroms):
                    1          2          3          4          5
     1  B    0.000000
     2  O    1.355955   0.000000
     3  Si   2.777410   1.685293   0.000000
     4  H    1.209824   2.230685   3.104880   0.000000
     5  H    1.210763   2.197681   3.829537   2.109200   0.000000
     6  H    3.124700   2.603508   1.485393   2.860885   4.327184
     7  H    3.744312   2.565217   1.483027   4.234941   4.635608
     8  H    3.665817   2.560651   1.490106   4.000710   4.598896
     9  Al   4.121815   4.323298   4.295093   3.829243   4.842897
    10  Cl   2.925998   3.409873   4.207946   3.115157   3.172281
    11  Cl   4.891960   4.450578   3.789914   4.898579   5.756424
    12  Cl   6.047722   6.393728   6.440355   5.707831   6.555815
    13  Cl   4.166893   4.577036   4.351525   3.312777   5.094408
                    6          7          8          9         10
     6  H    0.000000
     7  H    2.455803   0.000000
     8  H    2.441157   2.424921   0.000000
     9  Al   3.670515   4.269030   5.752219   0.000000
    10  Cl   4.188449   4.311276   5.618146   2.178399   0.000000
    11  Cl   3.452823   3.116540   5.132730   2.162383   3.523606
    12  Cl   5.773029   6.255869   7.900838   2.160620   3.523362
    13  Cl   3.154663   4.912372   5.543766   2.161152   3.553656
                   11         12         13
    11  Cl   0.000000
    12  Cl   3.547144   0.000000
    13  Cl   3.539428   3.530989   0.000000
 Stoichiometry    AlBCl4H5OSi(1-)
 Framework group  C1[X(AlBCl4H5OSi)]
 Deg. of freedom    33
 Full point group                 C1      NOp   1
 RotChk:  IX=3 Diff= 3.91D-02
 Largest Abelian subgroup         C1      NOp   1
 Largest concise Abelian subgroup C1      NOp   1
                         Standard orientation:                         
 ---------------------------------------------------------------------
 Center     Atomic      Atomic             Coordinates (Angstroms)
 Number     Number       Type             X           Y           Z
 ---------------------------------------------------------------------
      1          5           0       -2.526927   -1.794020    0.223029
      2          8           0       -3.084592   -0.701370   -0.354674
      3         14           0       -3.039155    0.930988    0.061922
      4          1           0       -1.988073   -1.713747    1.303245
      5          1           0       -2.705488   -2.865674   -0.311408
      6          1           0       -2.122579    1.142502    1.211507
      7          1           0       -2.604509    1.695577   -1.132170
      8          1           0       -4.426264    1.334734    0.427075
      9         13           0        1.160778    0.033895    0.001866
     10         17           0        0.139145   -1.626084   -0.970840
     11         17           0        0.498835    1.878617   -0.911770
     12         17           0        3.289957   -0.213965   -0.269140
     13         17           0        0.696554    0.050444    2.112506
 ---------------------------------------------------------------------
 Rotational constants (GHZ):           0.9529106           0.4241867           0.3992822
 Leave Link  202 at Wed Jun 24 01:11:54 2026, MaxMem=  1879048192 cpu:               0.0 elap:               0.0
 (Enter /CH/g16/l301.exe)
 Standard basis: def2SVP (5D, 7F)
 Ernie: Thresh=  0.10000D-02 Tol=  0.10000D-05 Strict=F.
 There are   169 symmetry adapted cartesian basis functions of A   symmetry.
 There are   161 symmetry adapted basis functions of A   symmetry.
   161 basis functions,   307 primitive gaussians,   169 cartesian basis functions
    57 alpha electrons       57 beta electrons
       nuclear repulsion energy       886.1577261523 Hartrees.
 IExCor=  402 DFT=T Ex+Corr=B3LYP ExCW=0 ScaHFX=  0.200000
 ScaDFX=  0.800000  0.720000  1.000000  0.810000 ScalE2=  1.000000  1.000000
 IRadAn=      5 IRanWt=     -1 IRanGd=            0 ICorTp=0 IEmpDi=141
 NAtoms=   13 NActive=   13 NUniq=   13 SFac= 1.00D+00 NAtFMM=   60 NAOKFM=F Big=F
 Integral buffers will be    131072 words long.
 Raffenetti 2 integral format.
 Two-electron integral symmetry is turned on.
 R6Disp:  Grimme-D3(BJ) Dispersion energy=       -0.0321979889 Hartrees.
 Nuclear repulsion after empirical dispersion term =      886.1255281634 Hartrees.
 ------------------------------------------------------------------------------
 Polarizable Continuum Model (PCM)
 =================================
 Model                : PCM.
 Atomic radii         : SMD-Coulomb.
 Polarization charges : Total charges.
 Charge compensation  : None.
 Solution method      : On-the-fly selection.
 Cavity type          : VdW (van der Waals Surface) (Alpha=1.000).
 Cavity algorithm     : GePol (No added spheres)
                        Default sphere list used, NSphG=   13.
                        Lebedev-Laikov grids with approx.  5.0 points / Ang**2.
                        Smoothing algorithm: York/Karplus (Gamma=1.0000).
                        Polarization charges: spherical gaussians, with
                                              point-specific exponents (IZeta= 3).
                        Self-potential: point-specific (ISelfS= 7).
                        Self-field    : sphere-specific E.n sum rule (ISelfD= 2).
 1st derivatives      : Analytical E(r).r(x)/FMM algorithm (CHGder, D1EAlg=3).
                        Cavity 1st derivative terms included.
 Solvent              : TetraHydroFuran, Eps=   7.425700 Eps(inf)=   1.974025
 ------------------------------------------------------------------------------
 Spheres list:
 ISph  on   Nord     Re0    Alpha      Xe            Ye            Ze
    1   B      1    1.8000  1.000     -2.526927     -1.794020      0.223029
    2   O      2    2.2940  1.000     -3.084592     -0.701370     -0.354674
    3  Si      3    2.4700  1.000     -3.039155      0.930988      0.061922
    4   H      4    1.2000  1.000     -1.988073     -1.713747      1.303245
    5   H      5    1.2000  1.000     -2.705488     -2.865674     -0.311408
    6   H      6    1.2000  1.000     -2.122579      1.142502      1.211507
    7   H      7    1.2000  1.000     -2.604509      1.695577     -1.132170
    8   H      8    1.2000  1.000     -4.426264      1.334734      0.427075
    9  Al      9    2.3000  1.000      1.160778      0.033895      0.001866
   10  Cl     10    2.3800  1.000      0.139145     -1.626084     -0.970840
   11  Cl     11    2.3800  1.000      0.498835      1.878617     -0.911770
   12  Cl     12    2.3800  1.000      3.289957     -0.213965     -0.269140
   13  Cl     13    2.3800  1.000      0.696554      0.050444      2.112506
 ------------------------------------------------------------------------------
 GePol: Number of generator spheres                  =      13
 GePol: Total number of spheres                      =      13
 GePol: Number of exposed spheres                    =      13 (100.00%)
 GePol: Number of points                             =    1805
 GePol: Average weight of points                     =       0.14
 GePol: Minimum weight of points                     =   0.15D-10
 GePol: Maximum weight of points                     =    0.19536
 GePol: Number of points with low weight             =      59
 GePol: Fraction of low-weight points (<1% of avg)   =       3.27%
 GePol: Cavity surface area                          =    257.921 Ang**2
 GePol: Cavity volume                                =    283.595 Ang**3
 ------------------------------------------------------------------------------
 Atomic radii for non-electrostatic terms: SMD-CDS.
 ------------------------------------------------------------------------------
 PCM non-electrostatic energy =        -0.0031044086 Hartrees.
 Nuclear repulsion after PCM non-electrostatic terms =      886.1224237548 Hartrees.
 Leave Link  301 at Wed Jun 24 01:11:54 2026, MaxMem=  1879048192 cpu:               0.1 elap:               0.0
 (Enter /CH/g16/l302.exe)
 NPDir=0 NMtPBC=     1 NCelOv=     1 NCel=       1 NClECP=     1 NCelD=      1
         NCelK=      1 NCelE2=     1 NClLst=     1 CellRange=     0.0.
 One-electron integrals computed using PRISM.
 One-electron integral symmetry used in STVInt
   1 Symmetry operations used in ECPInt.
 ECPInt:  NShTT=    2850 NPrTT=   12582 LenC2=    2668 LenP2D=    8058.
 LDataN:  DoStor=T MaxTD1= 4 Len=   56
 NBasis=   161 RedAO= T EigKep=  7.88D-03  NBF=   161
 NBsUse=   161 1.00D-06 EigRej= -1.00D+00 NBFU=   161
 Precomputing XC quadrature grid using
 IXCGrd= 4 IRadAn=           5 IRanWt=          -1 IRanGd=           0 AccXCQ= 0.00D+00.
 Generated NRdTot=       0 NPtTot=           0 NUsed=           0 NTot=          32
 NSgBfM=   166   166   166   166   166 MxSgAt=    13 MxSgA2=    13.
 Leave Link  302 at Wed Jun 24 01:11:54 2026, MaxMem=  1879048192 cpu:               0.4 elap:               0.1
 (Enter /CH/g16/l303.exe)
 DipDrv:  MaxL=1.
 Leave Link  303 at Wed Jun 24 01:11:54 2026, MaxMem=  1879048192 cpu:               0.0 elap:               0.0
 (Enter /CH/g16/l401.exe)
 Initial guess from the checkpoint file:  "BSiOx_cpx.chk"
 B after Tr=     0.000000    0.000000    0.000000
         Rot=    0.999562    0.029151    0.005091    0.000666 Ang=   3.39 deg.
 Guess basis will be translated and rotated to current coordinates.
 JPrj=2 DoOrth=T DoCkMO=T.
 Generating alternative initial guess.
 ExpMin= 5.44D-02 ExpMax= 1.04D+04 ExpMxC= 1.57D+03 IAcc=3 IRadAn=         5 AccDes= 0.00D+00
 Harris functional with IExCor=  402 and IRadAn=       5 diagonalized for initial guess.
 HarFok:  IExCor=  402 AccDes= 0.00D+00 IRadAn=         5 IDoV= 1 UseB2=F ITyADJ=14
 ICtDFT=  3500011 ScaDFX=  1.000000  1.000000  1.000000  1.000000
 FoFCou: FMM=F IPFlag=           0 FMFlag=      100000 FMFlg1=           0
         NFxFlg=           0 DoJE=T BraDBF=F KetDBF=T FulRan=T
         wScrn=  0.000000 ICntrl=       500 IOpCl=  0 I1Cent=   200000004 NGrid=           0
         NMat0=    1 NMatS0=      1 NMatT0=    0 NMatD0=    1 NMtDS0=    0 NMtDT0=    0
 Petite list used in FoFCou.
 Harris En= -2475.26335971266    
 Leave Link  401 at Wed Jun 24 01:11:54 2026, MaxMem=  1879048192 cpu:               1.6 elap:               0.3
 (Enter /CH/g16/l502.exe)
 Integral symmetry usage will be decided dynamically.
 Closed shell SCF:
 Using DIIS extrapolation, IDIIS=  1040.
 NGot=  1879048192 LenX=  1878987600 LenY=  1878958598
 Requested convergence on RMS density matrix=1.00D-08 within  32 cycles.
 Requested convergence on MAX density matrix=1.00D-06.
 Requested convergence on             energy=1.00D-06.
 No special actions if energy rises.
 Fock matrices will be formed incrementally for  20 cycles.

 Cycle   1  Pass 1  IDiag  1:
 FoFJK:  IHMeth= 1 ICntrl=       0 DoSepK=F KAlg= 0 I1Cent=           0 FoldK=F
 IRaf= 890000000 NMat=       1 IRICut=       1 DoRegI=T DoRafI=F ISym2E= 0 IDoP0=0 IntGTp=1.
 FoFCou: FMM=F IPFlag=           0 FMFlag=      100000 FMFlg1=           0
         NFxFlg=           0 DoJE=F BraDBF=F KetDBF=F FulRan=T
         wScrn=  0.000000 ICntrl=         0 IOpCl=  0 I1Cent=           0 NGrid=           0
         NMat0=    1 NMatS0=      1 NMatT0=    0 NMatD0=    1 NMtDS0=    0 NMtDT0=    0
 Symmetry not used in FoFCou.
 Inv3:  Mode=1 IEnd=     9774075.
 Iteration    1 A*A^-1 deviation from unit magnitude is 3.55D-15 for   1638.
 Iteration    1 A*A^-1 deviation from orthogonality  is 1.40D-15 for    968    748.
 Iteration    1 A^-1*A deviation from unit magnitude is 3.33D-15 for   1638.
 Iteration    1 A^-1*A deviation from orthogonality  is 1.83D-15 for   1705     72.
 E= -2475.61887684097    
 DIIS: error= 4.50D-03 at cycle   1 NSaved=   1.
 NSaved= 1 IEnMin= 1 EnMin= -2475.61887684097     IErMin= 1 ErrMin= 4.50D-03
 ErrMax= 4.50D-03  0.00D+00 EMaxC= 1.00D-01 BMatC= 3.10D-03 BMatP= 3.10D-03
 IDIUse=3 WtCom= 9.55D-01 WtEn= 4.50D-02
 Coeff-Com:  0.100D+01
 Coeff-En:   0.100D+01
 Coeff:      0.100D+01
 Gap=     0.507 Goal=   None    Shift=    0.000
 GapD=    0.507 DampG=2.000 DampE=1.000 DampFc=2.0000 IDamp=-1.
 RMSDP=5.78D-04 MaxDP=1.18D-02              OVMax= 1.93D-02

 Cycle   2  Pass 1  IDiag  1:
 RMSU=  5.78D-04    CP:  1.00D+00
 E= -2475.62348764824     Delta-E=       -0.004610807267 Rises=F Damp=F
 DIIS: error= 4.37D-04 at cycle   2 NSaved=   2.
 NSaved= 2 IEnMin= 2 EnMin= -2475.62348764824     IErMin= 2 ErrMin= 4.37D-04
 ErrMax= 4.37D-04  0.00D+00 EMaxC= 1.00D-01 BMatC= 2.17D-05 BMatP= 3.10D-03
 IDIUse=3 WtCom= 9.96D-01 WtEn= 4.37D-03
 Coeff-Com: -0.544D-01 0.105D+01
 Coeff-En:   0.000D+00 0.100D+01
 Coeff:     -0.541D-01 0.105D+01
 Gap=     0.276 Goal=   None    Shift=    0.000
 RMSDP=6.20D-05 MaxDP=1.20D-03 DE=-4.61D-03 OVMax= 2.78D-03

 Cycle   3  Pass 1  IDiag  1:
 RMSU=  4.35D-05    CP:  1.00D+00  1.08D+00
 E= -2475.62353532628     Delta-E=       -0.000047678040 Rises=F Damp=F
 DIIS: error= 1.66D-04 at cycle   3 NSaved=   3.
 NSaved= 3 IEnMin= 3 EnMin= -2475.62353532628     IErMin= 3 ErrMin= 1.66D-04
 ErrMax= 1.66D-04  0.00D+00 EMaxC= 1.00D-01 BMatC= 3.89D-06 BMatP= 2.17D-05
 IDIUse=3 WtCom= 9.98D-01 WtEn= 1.66D-03
 Coeff-Com: -0.201D-01 0.313D+00 0.707D+00
 Coeff-En:   0.000D+00 0.000D+00 0.100D+01
 Coeff:     -0.201D-01 0.312D+00 0.708D+00
 Gap=     0.275 Goal=   None    Shift=    0.000
 RMSDP=1.78D-05 MaxDP=6.41D-04 DE=-4.77D-05 OVMax= 7.40D-04

 Cycle   4  Pass 1  IDiag  1:
 RMSU=  1.63D-05    CP:  1.00D+00  1.08D+00  8.45D-01
 E= -2475.62353738380     Delta-E=       -0.000002057525 Rises=F Damp=F
 DIIS: error= 1.30D-04 at cycle   4 NSaved=   4.
 NSaved= 4 IEnMin= 4 EnMin= -2475.62353738380     IErMin= 4 ErrMin= 1.30D-04
 ErrMax= 1.30D-04  0.00D+00 EMaxC= 1.00D-01 BMatC= 2.20D-06 BMatP= 3.89D-06
 IDIUse=3 WtCom= 9.99D-01 WtEn= 1.30D-03
 Coeff-Com: -0.500D-02 0.527D-01 0.427D+00 0.525D+00
 Coeff-En:   0.000D+00 0.000D+00 0.303D+00 0.697D+00
 Coeff:     -0.500D-02 0.526D-01 0.427D+00 0.526D+00
 Gap=     0.275 Goal=   None    Shift=    0.000
 RMSDP=8.68D-06 MaxDP=3.61D-04 DE=-2.06D-06 OVMax= 3.71D-04

 Cycle   5  Pass 1  IDiag  1:
 RMSU=  5.81D-06    CP:  1.00D+00  1.08D+00  9.15D-01  6.50D-01
 E= -2475.62353897455     Delta-E=       -0.000001590748 Rises=F Damp=F
 DIIS: error= 3.04D-05 at cycle   5 NSaved=   5.
 NSaved= 5 IEnMin= 5 EnMin= -2475.62353897455     IErMin= 5 ErrMin= 3.04D-05
 ErrMax= 3.04D-05  0.00D+00 EMaxC= 1.00D-01 BMatC= 1.46D-07 BMatP= 2.20D-06
 IDIUse=1 WtCom= 1.00D+00 WtEn= 0.00D+00
 Coeff-Com:  0.228D-03-0.160D-01 0.122D+00 0.263D+00 0.631D+00
 Coeff:      0.228D-03-0.160D-01 0.122D+00 0.263D+00 0.631D+00
 Gap=     0.276 Goal=   None    Shift=    0.000
 RMSDP=2.93D-06 MaxDP=8.13D-05 DE=-1.59D-06 OVMax= 7.47D-05

 Cycle   6  Pass 1  IDiag  1:
 RMSU=  1.35D-06    CP:  1.00D+00  1.08D+00  9.38D-01  6.89D-01  6.03D-01
 E= -2475.62353909896     Delta-E=       -0.000000124413 Rises=F Damp=F
 DIIS: error= 2.86D-06 at cycle   6 NSaved=   6.
 NSaved= 6 IEnMin= 6 EnMin= -2475.62353909896     IErMin= 6 ErrMin= 2.86D-06
 ErrMax= 2.86D-06  0.00D+00 EMaxC= 1.00D-01 BMatC= 4.99D-09 BMatP= 1.46D-07
 IDIUse=1 WtCom= 1.00D+00 WtEn= 0.00D+00
 Coeff-Com:  0.299D-03-0.886D-02 0.311D-01 0.822D-01 0.263D+00 0.633D+00
 Coeff:      0.299D-03-0.886D-02 0.311D-01 0.822D-01 0.263D+00 0.633D+00
 Gap=     0.276 Goal=   None    Shift=    0.000
 RMSDP=6.41D-07 MaxDP=2.20D-05 DE=-1.24D-07 OVMax= 1.82D-05

 Cycle   7  Pass 1  IDiag  1:
 RMSU=  3.16D-07    CP:  1.00D+00  1.08D+00  9.38D-01  7.01D-01  6.55D-01
                    CP:  6.85D-01
 E= -2475.62353910433     Delta-E=       -0.000000005370 Rises=F Damp=F
 DIIS: error= 7.60D-07 at cycle   7 NSaved=   7.
 NSaved= 7 IEnMin= 7 EnMin= -2475.62353910433     IErMin= 7 ErrMin= 7.60D-07
 ErrMax= 7.60D-07  0.00D+00 EMaxC= 1.00D-01 BMatC= 1.52D-10 BMatP= 4.99D-09
 IDIUse=1 WtCom= 1.00D+00 WtEn= 0.00D+00
 Coeff-Com:  0.663D-04-0.139D-02 0.975D-03 0.534D-02 0.313D-01 0.169D+00
 Coeff-Com:  0.794D+00
 Coeff:      0.663D-04-0.139D-02 0.975D-03 0.534D-02 0.313D-01 0.169D+00
 Coeff:      0.794D+00
 Gap=     0.276 Goal=   None    Shift=    0.000
 RMSDP=1.44D-07 MaxDP=7.54D-06 DE=-5.37D-09 OVMax= 5.40D-06

 Cycle   8  Pass 1  IDiag  1:
 RMSU=  9.74D-08    CP:  1.00D+00  1.08D+00  9.39D-01  7.00D-01  6.61D-01
                    CP:  7.37D-01  8.10D-01
 E= -2475.62353910451     Delta-E=       -0.000000000174 Rises=F Damp=F
 DIIS: error= 3.44D-07 at cycle   8 NSaved=   8.
 NSaved= 8 IEnMin= 8 EnMin= -2475.62353910451     IErMin= 8 ErrMin= 3.44D-07
 ErrMax= 3.44D-07  0.00D+00 EMaxC= 1.00D-01 BMatC= 2.42D-11 BMatP= 1.52D-10
 IDIUse=1 WtCom= 1.00D+00 WtEn= 0.00D+00
 Coeff-Com:  0.212D-05 0.217D-03-0.237D-02-0.511D-02-0.114D-01 0.123D-01
 Coeff-Com:  0.322D+00 0.684D+00
 Coeff:      0.212D-05 0.217D-03-0.237D-02-0.511D-02-0.114D-01 0.123D-01
 Coeff:      0.322D+00 0.684D+00
 Gap=     0.276 Goal=   None    Shift=    0.000
 RMSDP=4.77D-08 MaxDP=2.69D-06 DE=-1.74D-10 OVMax= 1.54D-06

 Cycle   9  Pass 1  IDiag  1:
 RMSU=  2.51D-08    CP:  1.00D+00  1.08D+00  9.39D-01  7.00D-01  6.60D-01
                    CP:  7.40D-01  8.96D-01  7.18D-01
 E= -2475.62353910453     Delta-E=       -0.000000000026 Rises=F Damp=F
 DIIS: error= 7.28D-08 at cycle   9 NSaved=   9.
 NSaved= 9 IEnMin= 9 EnMin= -2475.62353910453     IErMin= 9 ErrMin= 7.28D-08
 ErrMax= 7.28D-08  0.00D+00 EMaxC= 1.00D-01 BMatC= 1.29D-12 BMatP= 2.42D-11
 IDIUse=1 WtCom= 1.00D+00 WtEn= 0.00D+00
 Coeff-Com: -0.258D-05 0.149D-03-0.946D-03-0.214D-02-0.607D-02-0.378D-02
 Coeff-Com:  0.834D-01 0.268D+00 0.661D+00
 Coeff:     -0.258D-05 0.149D-03-0.946D-03-0.214D-02-0.607D-02-0.378D-02
 Coeff:      0.834D-01 0.268D+00 0.661D+00
 Gap=     0.276 Goal=   None    Shift=    0.000
 RMSDP=1.12D-08 MaxDP=4.83D-07 DE=-2.59D-11 OVMax= 3.59D-07

 Cycle  10  Pass 1  IDiag  1:
 RMSU=  5.59D-09    CP:  1.00D+00  1.08D+00  9.39D-01  7.01D-01  6.60D-01
                    CP:  7.41D-01  9.02D-01  7.68D-01  6.92D-01
 E= -2475.62353910453     Delta-E=       -0.000000000000 Rises=F Damp=F
 DIIS: error= 1.06D-08 at cycle  10 NSaved=  10.
 NSaved=10 IEnMin=10 EnMin= -2475.62353910453     IErMin=10 ErrMin= 1.06D-08
 ErrMax= 1.06D-08  0.00D+00 EMaxC= 1.00D-01 BMatC= 3.85D-14 BMatP= 1.29D-12
 IDIUse=1 WtCom= 1.00D+00 WtEn= 0.00D+00
 Coeff-Com: -0.847D-06 0.271D-04-0.120D-03-0.269D-03-0.963D-03-0.165D-02
 Coeff-Com:  0.431D-02 0.335D-01 0.173D+00 0.792D+00
 Coeff:     -0.847D-06 0.271D-04-0.120D-03-0.269D-03-0.963D-03-0.165D-02
 Coeff:      0.431D-02 0.335D-01 0.173D+00 0.792D+00
 Gap=     0.276 Goal=   None    Shift=    0.000
 RMSDP=2.23D-09 MaxDP=6.41D-08 DE=-4.55D-13 OVMax= 9.65D-08

 Error on total polarization charges =  0.01235
 SCF Done:  E(RB3LYP) =  -2475.62353910     A.U. after   10 cycles
            NFock= 10  Conv=0.22D-08     -V/T= 2.0028
 KE= 2.468604989637D+03 PE=-7.675720982025D+03 EE= 1.845370029529D+03
 SMD-CDS (non-electrostatic) energy       (kcal/mol) =      -1.95
 (included in total energy above)
 Leave Link  502 at Wed Jun 24 01:11:59 2026, MaxMem=  1879048192 cpu:              33.0 elap:               4.7
 (Enter /CH/g16/l508.exe)
 QCSCF skips out because SCF is already converged.
 Leave Link  508 at Wed Jun 24 01:11:59 2026, MaxMem=  1879048192 cpu:               0.0 elap:               0.0
 (Enter /CH/g16/l701.exe)
 ... and contract with generalized density number  0.
 Compute integral first derivatives.
 R6Disp: Adding Grimme-D3(BJ) dispersion energy 1st derivatives to the gradient.
   1 Symmetry operations used in ECPInt.
 ECPInt:  NShTT=    2850 NPrTT=   12582 LenC2=    2668 LenP2D=    8058.
 LDataN:  DoStor=T MaxTD1= 5 Len=  102
 D1PCM: PCM CHGder 1st derivatives, ID1Alg=3 FixD1E=F DoIter=F DoCFld=F I1PDM=0.
 GePol: Maximum number of non-zero 1st derivatives   =     383
 Leave Link  701 at Wed Jun 24 01:11:59 2026, MaxMem=  1879048192 cpu:               3.0 elap:               0.4
 (Enter /CH/g16/l702.exe)
 L702 exits ... SP integral derivatives will be done elsewhere.
 Leave Link  702 at Wed Jun 24 01:12:00 2026, MaxMem=  1879048192 cpu:               0.0 elap:               0.0
 (Enter /CH/g16/l703.exe)
 Integral derivatives from FoFJK, PRISM(SPDF).
 Compute integral first derivatives, UseDBF=F ICtDFT=           0.
 Calling FoFJK, ICntrl=      2127 FMM=F ISym2X=0 I1Cent= 0 IOpClX= 0 NMat=1 NMatS=1 NMatT=0.
 FoFJK:  IHMeth= 1 ICntrl=    2127 DoSepK=F KAlg= 0 I1Cent=           0 FoldK=F
 IRaf=         0 NMat=       1 IRICut=       1 DoRegI=T DoRafI=F ISym2E= 0 IDoP0=0 IntGTp=1.
 FoFCou: FMM=F IPFlag=           0 FMFlag=      100000 FMFlg1=         800
         NFxFlg=           0 DoJE=F BraDBF=F KetDBF=F FulRan=T
         wScrn=  0.000000 ICntrl=      2127 IOpCl=  0 I1Cent=           0 NGrid=           0
         NMat0=    1 NMatS0=      1 NMatT0=    0 NMatD0=    1 NMtDS0=    0 NMtDT0=    0
 Symmetry not used in FoFCou.
 Leave Link  703 at Wed Jun 24 01:12:00 2026, MaxMem=  1879048192 cpu:               5.5 elap:               0.7
 (Enter /CH/g16/l716.exe)
 Dipole        =-1.43556333D+00 6.15923191D-01 1.10834862D-01
 ***** Axes restored to original set *****
 -------------------------------------------------------------------
 Center     Atomic                   Forces (Hartrees/Bohr)
 Number     Number              X              Y              Z
 -------------------------------------------------------------------
      1        5           0.000915629   -0.002059809   -0.000875476
      2        8          -0.000607816    0.001904297    0.000543739
      3       14           0.000144956   -0.001146834   -0.000306616
      4        1          -0.000198097    0.000097882    0.000280130
      5        1          -0.000034923    0.000282748   -0.000028913
      6        1           0.000208372    0.000033875   -0.000213253
      7        1           0.000640307    0.000255694    0.000363041
      8        1           0.000212784    0.000161859    0.000100923
      9       13          -0.000227743    0.000145397    0.000314918
     10       17          -0.000405266    0.000278105    0.000048039
     11       17          -0.000700705    0.000095139    0.000077785
     12       17           0.000145594   -0.000198065   -0.000208915
     13       17          -0.000093093    0.000149710   -0.000095402
 -------------------------------------------------------------------
 Cartesian Forces:  Max     0.002059809 RMS     0.000591043
 Leave Link  716 at Wed Jun 24 01:12:00 2026, MaxMem=  1879048192 cpu:               0.0 elap:               0.0
 (Enter /CH/g16/l103.exe)

 GradGradGradGradGradGradGradGradGradGradGradGradGradGradGradGradGradGrad
 Berny optimization.
 Using GEDIIS/GDIIS optimizer.
 FormGI is forming the generalized inverse of G from B-inverse, IUseBI=4.
 Internal  Forces:  Max     0.005135992 RMS     0.001303362
 Search for a local minimum.
 Step number   2 out of a maximum of  100
 All quantities printed in internal units (Hartrees-Bohrs-Radians)
 RMS Force = .13034D-02 SwitMx=.10000D-02 MixMth= 1
 Mixed Optimization -- RFO/linear search
 Update second derivatives using D2CorX and points    2    1
 DE=  2.29D-05 DEPred=-1.82D-04 R=-1.26D-01
 Trust test=-1.26D-01 RLast= 1.55D-01 DXMaxT set to 1.50D-01
 ITU= -1  0
 Use linear search instead of GDIIS.
     Eigenvalues ---    0.00560   0.01609   0.02608   0.02751   0.03314
     Eigenvalues ---    0.07844   0.10816   0.11055   0.11354   0.11944
     Eigenvalues ---    0.12925   0.15368   0.16000   0.16006   0.16020
     Eigenvalues ---    0.16222   0.17306   0.17553   0.17678   0.20154
     Eigenvalues ---    0.20842   0.21136   0.21170   0.21209   0.23798
     Eigenvalues ---    0.23899   0.24538   0.25000   0.25000   0.25000
     Eigenvalues ---    0.28209   0.38179   0.43547
 RFO step:  Lambda=-5.11478337D-04 EMin= 5.59874854D-03
 Quartic linear search produced a step of -0.55301.
 Iteration  1 RMS(Cart)=  0.15937832 RMS(Int)=  0.00544856
 Iteration  2 RMS(Cart)=  0.00774362 RMS(Int)=  0.00001036
 Iteration  3 RMS(Cart)=  0.00002133 RMS(Int)=  0.00000615
 Iteration  4 RMS(Cart)=  0.00000000 RMS(Int)=  0.00000615
 ITry= 1 IFail=0 DXMaxC= 4.50D-01 DCOld= 1.00D+10 DXMaxT= 1.50D-01 DXLimC= 3.00D+00 Rises=F
 Variable       Old X    -DE/DX   Delta X   Delta X   Delta X     New X
                                 (Linear)    (Quad)   (Total)
    R1        2.56238  -0.00094   0.01156  -0.04101  -0.02945   2.53293
    R2        2.28624   0.00033   0.00146  -0.00442  -0.00296   2.28328
    R3        2.28801   0.00026   0.00188  -0.00601  -0.00413   2.28388
    R4        5.52933   0.00109   0.00172   0.01274   0.01446   5.54379
    R5        3.18474   0.00066   0.00288  -0.00920  -0.00632   3.17842
    R6        2.80699  -0.00029  -0.00080   0.00200   0.00120   2.80819
    R7        2.80252  -0.00061  -0.00041  -0.00020  -0.00061   2.80191
    R8        2.81589   0.00019  -0.00004   0.00065   0.00061   2.81650
    R9        4.11658   0.00027   0.00031  -0.00046  -0.00014   4.11643
   R10        4.08631  -0.00033   0.00005  -0.00089  -0.00085   4.08546
   R11        4.08298  -0.00013  -0.00015   0.00024   0.00009   4.08307
   R12        4.08399  -0.00012  -0.00010   0.00009  -0.00001   4.08397
    A1        2.10612   0.00086   0.00241  -0.00484  -0.00244   2.10368
    A2        2.05389  -0.00101   0.00044  -0.00536  -0.00491   2.04897
    A3        1.72607   0.00514   0.00129   0.00696   0.00826   1.73433
    A4        2.11593  -0.00012  -0.00308   0.00981   0.00673   2.12266
    A5        1.52545  -0.00102  -0.00045   0.00253   0.00209   1.52754
    A6        1.57587  -0.00190   0.00062  -0.00545  -0.00482   1.57105
    A7        2.29709   0.00314   0.00401  -0.00808  -0.00407   2.29301
    A8        1.92396   0.00018  -0.00035   0.00189   0.00154   1.92551
    A9        1.88413   0.00022  -0.00045   0.00230   0.00185   1.88598
   A10        1.87331  -0.00061  -0.00041  -0.00063  -0.00104   1.87227
   A11        1.94860   0.00034   0.00068  -0.00081  -0.00013   1.94847
   A12        1.92429   0.00000   0.00020  -0.00093  -0.00073   1.92356
   A13        1.90757  -0.00017   0.00026  -0.00177  -0.00150   1.90606
   A14        1.89426   0.00132   0.00179  -0.00366  -0.00188   1.89238
   A15        1.89519  -0.00043   0.00107  -0.00487  -0.00381   1.89138
   A16        1.91897  -0.00016  -0.00049   0.00163   0.00114   1.92011
   A17        1.92467  -0.00111   0.00050  -0.00434  -0.00385   1.92082
   A18        1.91809   0.00030  -0.00005   0.00143   0.00138   1.91947
   A19        1.91246   0.00009  -0.00279   0.00961   0.00683   1.91928
   A20        1.86384   0.00377   0.00145   0.00197   0.00342   1.86726
    D1        0.15075   0.00091   0.00315  -0.01412  -0.01098   0.13977
    D2       -3.11837  -0.00151   0.00097  -0.01681  -0.01583  -3.13420
    D3       -1.45955  -0.00112   0.00247  -0.02039  -0.01793  -1.47748
    D4        1.27513   0.00176   0.04829   0.10337   0.15168   1.42681
    D5       -0.83057   0.00084   0.04587   0.10760   0.15346  -0.67711
    D6       -2.94686   0.00085   0.04897   0.09756   0.14653  -2.80033
    D7        0.09320   0.00020   0.00278  -0.00316  -0.00038   0.09282
    D8        2.22579   0.00088   0.00312  -0.00152   0.00160   2.22739
    D9       -2.00297   0.00047   0.00298  -0.00273   0.00025  -2.00272
   D10       -1.40548  -0.00063  -0.00905   0.02719   0.01815  -1.38733
   D11        2.78525   0.00019  -0.01133   0.03737   0.02604   2.81128
   D12        0.69303   0.00044  -0.00830   0.02766   0.01937   0.71240
         Item               Value     Threshold  Converged?
 Maximum Force            0.005136     0.000450     NO 
 RMS     Force            0.001303     0.000300     NO 
 Maximum Displacement     0.450071     0.001800     NO 
 RMS     Displacement     0.161870     0.001200     NO 
 Predicted change in Energy=-2.834264D-04
 GradGradGradGradGradGradGradGradGradGradGradGradGradGradGradGradGradGrad

 Leave Link  103 at Wed Jun 24 01:12:00 2026, MaxMem=  1879048192 cpu:               0.0 elap:               0.0
 (Enter /CH/g16/l202.exe)
                          Input orientation:                          
 ---------------------------------------------------------------------
 Center     Atomic      Atomic             Coordinates (Angstroms)
[...]
    D9       -1.66481   0.00000   0.00045   0.00008   0.00053  -1.66428
   D10       -1.17325  -0.00002  -0.00019   0.00001  -0.00019  -1.17343
   D11        3.02738  -0.00000  -0.00019   0.00010  -0.00009   3.02729
   D12        0.92477   0.00001  -0.00020   0.00012  -0.00008   0.92468
         Item               Value     Threshold  Converged?
 Maximum Force            0.000062     0.000450     YES
 RMS     Force            0.000014     0.000300     YES
 Maximum Displacement     0.001350     0.001800     YES
 RMS     Displacement     0.000510     0.001200     YES
 Predicted change in Energy=-3.329924D-08
 Optimization completed.
    -- Stationary point found.
                           ----------------------------
                           !   Optimized Parameters   !
                           ! (Angstroms and Degrees)  !
 --------------------------                            --------------------------
 ! Name  Definition              Value          Derivative Info.                !
 --------------------------------------------------------------------------------
 ! R1    R(1,2)                  1.353          -DE/DX =    0.0                 !
 ! R2    R(1,4)                  1.2119         -DE/DX =    0.0                 !
 ! R3    R(1,5)                  1.2105         -DE/DX =    0.0                 !
 ! R4    R(1,10)                 2.9936         -DE/DX =    0.0                 !
 ! R5    R(2,3)                  1.6881         -DE/DX =    0.0                 !
 ! R6    R(3,6)                  1.4841         -DE/DX =    0.0                 !
 ! R7    R(3,7)                  1.4817         -DE/DX =    0.0                 !
 ! R8    R(3,8)                  1.4916         -DE/DX =    0.0                 !
 ! R9    R(9,10)                 2.175          -DE/DX =    0.0                 !
 ! R10   R(9,11)                 2.1644         -DE/DX =    0.0                 !
 ! R11   R(9,12)                 2.1603         -DE/DX =    0.0                 !
 ! R12   R(9,13)                 2.1607         -DE/DX =    0.0                 !
 ! A1    A(2,1,4)              120.6276         -DE/DX =    0.0                 !
 ! A2    A(2,1,5)              117.8335         -DE/DX =    0.0                 !
 ! A3    A(2,1,10)             104.7468         -DE/DX =    0.0                 !
 ! A4    A(4,1,5)              121.1906         -DE/DX =    0.0                 !
 ! A5    A(4,1,10)              86.326          -DE/DX =    0.0                 !
 ! A6    A(5,1,10)              85.0435         -DE/DX =    0.0                 !
 ! A7    A(1,2,3)              131.7255         -DE/DX =   -0.0001              !
 ! A8    A(2,3,6)              110.7155         -DE/DX =    0.0                 !
 ! A9    A(2,3,7)              107.9943         -DE/DX =    0.0                 !
 ! A10   A(2,3,8)              107.0016         -DE/DX =    0.0                 !
 ! A11   A(6,3,7)              112.2261         -DE/DX =    0.0                 !
 ! A12   A(6,3,8)              109.8587         -DE/DX =    0.0                 !
 ! A13   A(7,3,8)              108.8796         -DE/DX =    0.0                 !
 ! A14   A(10,9,11)            108.6962         -DE/DX =    0.0                 !
 ! A15   A(10,9,12)            108.9103         -DE/DX =    0.0                 !
 ! A16   A(10,9,13)            109.8093         -DE/DX =    0.0                 !
 ! A17   A(11,9,12)            109.5697         -DE/DX =    0.0                 !
 ! A18   A(11,9,13)            109.8615         -DE/DX =    0.0                 !
 ! A19   A(12,9,13)            109.9689         -DE/DX =    0.0                 !
 ! A20   A(1,10,9)             100.738          -DE/DX =    0.0                 !
 ! D1    D(4,1,2,3)             -2.3618         -DE/DX =    0.0                 !
 ! D2    D(5,1,2,3)            170.9421         -DE/DX =    0.0                 !
 ! D3    D(10,1,2,3)           -96.8834         -DE/DX =    0.0                 !
 ! D4    D(2,1,10,9)            60.7084         -DE/DX =    0.0                 !
 ! D5    D(4,1,10,9)           -60.0216         -DE/DX =    0.0                 !
 ! D6    D(5,1,10,9)           178.2111         -DE/DX =    0.0                 !
 ! D7    D(1,2,3,6)             24.3101         -DE/DX =    0.0                 !
 ! D8    D(1,2,3,7)            147.5429         -DE/DX =    0.0                 !
 ! D9    D(1,2,3,8)            -95.3867         -DE/DX =    0.0                 !
 ! D10   D(11,9,10,1)          -67.2221         -DE/DX =    0.0                 !
 ! D11   D(12,9,10,1)          173.4559         -DE/DX =    0.0                 !
 ! D12   D(13,9,10,1)           52.9852         -DE/DX =    0.0                 !
 --------------------------------------------------------------------------------
 Lowest energy point so far.  Saving SCF results.
 Largest change from initial coordinates is atom   11       0.386 Angstoms.
 GradGradGradGradGradGradGradGradGradGradGradGradGradGradGradGradGradGrad

 Leave Link  103 at Wed Jun 24 01:15:43 2026, MaxMem=  1879048192 cpu:               0.0 elap:               0.0
 (Enter /CH/g16/l202.exe)
                          Input orientation:                          
 ---------------------------------------------------------------------
 Center     Atomic      Atomic             Coordinates (Angstroms)
 Number     Number       Type             X           Y           Z
 ---------------------------------------------------------------------
      1          5           0        2.486350    1.719610    0.104089
      2          8           0        2.956155    0.585392   -0.464573
      3         14           0        3.112441   -0.987402    0.128382
      4          1           0        2.039052    1.706159    1.230370
      5          1           0        2.641212    2.759072   -0.496547
      6          1           0        2.151637   -1.229810    1.233145
      7          1           0        2.914681   -1.924551   -1.002127
      8          1           0        4.509460   -1.126782    0.632123
      9         13           0       -1.175198    0.075529    0.011213
     10         17           0       -0.355858    1.912618   -0.815961
     11         17           0       -0.273957   -1.607199   -1.009018
     12         17           0       -3.311629    0.055675   -0.308211
     13         17           0       -0.744215   -0.031481    2.125836
 ---------------------------------------------------------------------
                    Distance matrix (angstroms):
                    1          2          3          4          5
     1  B    0.000000
     2  O    1.352977   0.000000
     3  Si   2.778578   1.688106   0.000000
     4  H    1.211926   2.229357   3.101905   0.000000
     5  H    1.210465   2.196610   3.827357   2.110323   0.000000
     6  H    3.175827   2.612365   1.484051   2.938128   4.375236
     7  H    3.832375   2.567197   1.481692   4.351187   4.718763
     8  H    3.531819   2.558718   1.491591   3.806097   4.456917
     9  Al   4.014793   4.189798   4.418982   3.804826   4.692996
    10  Cl   2.993642   3.585308   4.618550   3.156848   3.130645
    11  Cl   4.463850   3.941763   3.625675   4.619871   5.274955
    12  Cl   6.046093   6.292072   6.522830   5.806989   6.540654
    13  Cl   4.194082   4.558891   4.447179   3.401150   5.111281
                    6          7          8          9         10
     6  H    0.000000
     7  H    2.461979   0.000000
     8  H    2.435400   2.418788   0.000000
     9  Al   3.776884   4.664149   5.843494   0.000000
    10  Cl   4.512340   5.045290   5.916606   2.174955   0.000000
    11  Cl   3.324638   3.204398   5.079884   2.164412   3.526059
    12  Cl   5.820268   6.570369   7.965669   2.160270   3.527412
    13  Cl   3.258657   5.172561   5.570634   2.160747   3.547465
                   11         12         13
    11  Cl   0.000000
    12  Cl   3.533233   0.000000
    13  Cl   3.539963   3.538898   0.000000
 Stoichiometry    AlBCl4H5OSi(1-)
 Framework group  C1[X(AlBCl4H5OSi)]
 Deg. of freedom    33
 Full point group                 C1      NOp   1
 RotChk:  IX=3 Diff= 5.58D-16
 Largest Abelian subgroup         C1      NOp   1
 Largest concise Abelian subgroup C1      NOp   1
                         Standard orientation:                         
 ---------------------------------------------------------------------
 Center     Atomic      Atomic             Coordinates (Angstroms)
 Number     Number       Type             X           Y           Z
 ---------------------------------------------------------------------
      1          5           0       -2.403752   -1.781057    0.240495
      2          8           0       -2.933271   -0.719985   -0.410874
      3         14           0       -3.172209    0.883107    0.061046
      4          1           0       -1.957104   -1.657974    1.360370
      5          1           0       -2.503756   -2.870112   -0.278336
      6          1           0       -2.224904    1.259584    1.139603
      7          1           0       -3.025012    1.740199   -1.138594
      8          1           0       -4.574338    0.986748    0.559179
      9         13           0        1.165601    0.041853    0.005378
     10         17           0        0.444124   -1.893733   -0.675362
     11         17           0        0.175947    1.591794   -1.136088
     12         17           0        3.297792    0.149831   -0.324570
     13         17           0        0.730852    0.287351    2.107652
 ---------------------------------------------------------------------
 Rotational constants (GHZ):           0.9575295           0.4215079           0.3979361
 Leave Link  202 at Wed Jun 24 01:15:43 2026, MaxMem=  1879048192 cpu:               0.0 elap:               0.0
 (Enter /CH/g16/l601.exe)
 Copying SCF densities to generalized density rwf, IOpCl= 0 IROHF=0.

 **********************************************************************

            Population analysis using the SCF Density.

 **********************************************************************

 Orbital symmetries:
       Occupied  (A) (A) (A) (A) (A) (A) (A) (A) (A) (A) (A) (A)
                 (A) (A) (A) (A) (A) (A) (A) (A) (A) (A) (A) (A)
                 (A) (A) (A) (A) (A) (A) (A) (A) (A) (A) (A) (A)
                 (A) (A) (A) (A) (A) (A) (A) (A) (A) (A) (A) (A)
                 (A) (A) (A) (A) (A) (A) (A) (A) (A)
       Virtual   (A) (A) (A) (A) (A) (A) (A) (A) (A) (A) (A) (A)
                 (A) (A) (A) (A) (A) (A) (A) (A) (A) (A) (A) (A)
                 (A) (A) (A) (A) (A) (A) (A) (A) (A) (A) (A) (A)
                 (A) (A) (A) (A) (A) (A) (A) (A) (A) (A) (A) (A)
                 (A) (A) (A) (A) (A) (A) (A) (A) (A) (A) (A) (A)
                 (A) (A) (A) (A) (A) (A) (A) (A) (A) (A) (A) (A)
                 (A) (A) (A) (A) (A) (A) (A) (A) (A) (A) (A) (A)
                 (A) (A) (A) (A) (A) (A) (A) (A) (A) (A) (A) (A)
                 (A) (A) (A) (A) (A) (A) (A) (A)
 The electronic state is 1-A.
 Alpha  occ. eigenvalues -- -101.44289-101.43873-101.43679-101.43524 -66.12641
 Alpha  occ. eigenvalues --  -56.05301 -19.12629  -9.39734  -9.39342  -9.39156
 Alpha  occ. eigenvalues --   -9.39027  -7.16222  -7.15877  -7.15841  -7.15815
 Alpha  occ. eigenvalues --   -7.15660  -7.15533  -7.15462  -7.15433  -7.15261
 Alpha  occ. eigenvalues --   -7.15255  -7.15127  -7.15126  -6.76743  -5.29143
 Alpha  occ. eigenvalues --   -4.14588  -3.65519  -3.65239  -3.65209  -2.70210
 Alpha  occ. eigenvalues --   -2.70198  -2.70193  -0.97854  -0.77083  -0.75198
 Alpha  occ. eigenvalues --   -0.74928  -0.74782  -0.56718  -0.46925  -0.41044
 Alpha  occ. eigenvalues --   -0.40310  -0.39405  -0.38605  -0.33737  -0.33366
 Alpha  occ. eigenvalues --   -0.33193  -0.32525  -0.31403  -0.28950  -0.28549
 Alpha  occ. eigenvalues --   -0.28228  -0.28137  -0.28060  -0.27088  -0.26192
 Alpha  occ. eigenvalues --   -0.26104  -0.25974
 Alpha virt. eigenvalues --    0.01414   0.03936   0.07262   0.09308   0.09899
 Alpha virt. eigenvalues --    0.11144   0.12037   0.12311   0.12413   0.14742
 Alpha virt. eigenvalues --    0.17926   0.18055   0.22769   0.24119   0.29203
 Alpha virt. eigenvalues --    0.29577   0.31063   0.32341   0.32368   0.35217
 Alpha virt. eigenvalues --    0.38257   0.39947   0.40528   0.42311   0.44302
 Alpha virt. eigenvalues --    0.46493   0.48866   0.50702   0.51302   0.51953
 Alpha virt. eigenvalues --    0.55261   0.56991   0.58335   0.65254   0.65565
 Alpha virt. eigenvalues --    0.69185   0.70003   0.71021   0.72032   0.76380
 Alpha virt. eigenvalues --    0.80677   0.80880   0.81222   0.82669   0.82840
 Alpha virt. eigenvalues --    0.82932   0.83073   0.83308   0.83446   0.84272
 Alpha virt. eigenvalues --    0.85040   0.85901   0.86151   0.86410   0.87202
 Alpha virt. eigenvalues --    0.89659   0.89898   0.91784   0.92185   0.93806
 Alpha virt. eigenvalues --    0.96537   0.98511   1.00157   1.00683   1.00991
 Alpha virt. eigenvalues --    1.01510   1.05338   1.06213   1.08117   1.12479
 Alpha virt. eigenvalues --    1.14861   1.15786   1.17395   1.18836   1.23133
 Alpha virt. eigenvalues --    1.28186   1.32494   1.34546   1.36760   1.38434
 Alpha virt. eigenvalues --    1.38887   1.39398   1.43817   1.47007   1.52722
 Alpha virt. eigenvalues --    1.56702   1.63385   1.69335   1.74183   1.75775
 Alpha virt. eigenvalues --    1.80174   1.86457   1.90521   2.00607   2.15951
 Alpha virt. eigenvalues --    2.19642   2.21013   2.48540   2.56881   2.71766
 Alpha virt. eigenvalues --    2.90041   2.92712   3.25514   3.32565
          Condensed to atoms (all electrons):
               1          2          3          4          5          6
     1  B    3.581433   0.516619  -0.034922   0.355146   0.360912  -0.014032
     2  O    0.516619   7.552877   0.360770  -0.029952  -0.036572  -0.012270
     3  Si  -0.034922   0.360770  11.936479   0.003277   0.000819   0.392038
     4  H    0.355146  -0.029952   0.003277   0.866543  -0.074889   0.007160
     5  H    0.360912  -0.036572   0.000819  -0.074889   0.862820  -0.000367
     6  H   -0.014032  -0.012270   0.392038   0.007160  -0.000367   0.758771
     7  H    0.004384  -0.014088   0.374233  -0.000450   0.000180  -0.017259
     8  H   -0.001552  -0.015531   0.367352  -0.000918   0.000141  -0.026602
     9  Al   0.001941   0.002614  -0.002086   0.003063  -0.000025   0.000622
    10  Cl   0.060686  -0.002681  -0.001130  -0.008723  -0.007077  -0.000102
    11  Cl  -0.002137  -0.000483   0.024571  -0.000138  -0.000030  -0.004564
    12  Cl   0.000040  -0.000000   0.000006   0.000003  -0.000000   0.000002
    13  Cl  -0.003161  -0.000014  -0.008164   0.007009   0.000120   0.012910
               7          8          9         10         11         12
     1  B    0.004384  -0.001552   0.001941   0.060686  -0.002137   0.000040
     2  O   -0.014088  -0.015531   0.002614  -0.002681  -0.000483  -0.000000
     3  Si   0.374233   0.367352  -0.002086  -0.001130   0.024571   0.000006
     4  H   -0.000450  -0.000918   0.003063  -0.008723  -0.000138   0.000003
     5  H    0.000180   0.000141  -0.000025  -0.007077  -0.000030  -0.000000
     6  H   -0.017259  -0.026602   0.000622  -0.000102  -0.004564   0.000002
     7  H    0.784817  -0.022086  -0.000394   0.000019  -0.000652   0.000000
     8  H   -0.022086   0.821034   0.000365  -0.000007   0.000191   0.000000
     9  Al  -0.000394   0.000365  11.033614   0.307501   0.327460   0.345815
    10  Cl   0.000019  -0.000007   0.307501  17.056468  -0.013561  -0.013253
    11  Cl  -0.000652   0.000191   0.327460  -0.013561  17.081655  -0.013580
    12  Cl   0.000000   0.000000   0.345815  -0.013253  -0.013580  17.078262
    13  Cl   0.000059   0.000017   0.334178  -0.012881  -0.013192  -0.013646
              13
     1  B   -0.003161
     2  O   -0.000014
     3  Si  -0.008164
     4  H    0.007009
     5  H    0.000120
     6  H    0.012910
     7  H    0.000059
     8  H    0.000017
     9  Al   0.334178
    10  Cl  -0.012881
    11  Cl  -0.013192
    12  Cl  -0.013646
    13  Cl  17.087129
 Mulliken charges:
               1
     1  B    0.174643
     2  O   -0.321287
     3  Si   0.586756
     4  H   -0.127129
     5  H   -0.106031
     6  H   -0.096307
     7  H   -0.108763
     8  H   -0.122402
     9  Al   0.645332
    10  Cl  -0.365259
    11  Cl  -0.385539
    12  Cl  -0.383649
    13  Cl  -0.390364
 Sum of Mulliken charges =  -1.00000
 Mulliken charges with hydrogens summed into heavy atoms:
               1
     1  B   -0.058517
     2  O   -0.321287
     3  Si   0.259284
     9  Al   0.645332
    10  Cl  -0.365259
    11  Cl  -0.385539
    12  Cl  -0.383649
    13  Cl  -0.390364
 Electronic spatial extent (au):  <R**2>=           2970.9320
 Charge=             -1.0000 electrons
 Dipole moment (field-independent basis, Debye):
    X=             -3.9061    Y=              1.5042    Z=              0.3013  Tot=              4.1966
 Quadrupole moment (field-independent basis, Debye-Ang):
   XX=           -111.2279   YY=           -102.9546   ZZ=           -102.0192
   XY=             -4.8862   XZ=             -1.6972   YZ=             -0.0734
 Traceless Quadrupole moment (field-independent basis, Debye-Ang):
   XX=             -5.8273   YY=              2.4460   ZZ=              3.3814
   XY=             -4.8862   XZ=             -1.6972   YZ=             -0.0734
 Octapole moment (field-independent basis, Debye-Ang**2):
  XXX=             -9.8773  YYY=             18.9362  ZZZ=            -14.6708  XYY=             10.1652
  XXY=              9.8772  XXZ=              7.5625  XZZ=              4.5086  YZZ=             -1.0395
  YYZ=              5.8528  XYZ=              1.0495
 Hexadecapole moment (field-independent basis, Debye-Ang**3):
 XXXX=          -2808.9498 YYYY=           -916.3285 ZZZZ=           -657.5580 XXXY=            -29.1539
 XXXZ=              9.5994 YYYX=            -30.5477 YYYZ=              7.3740 ZZZX=              1.3270
 ZZZY=              4.7362 XXYY=           -588.3104 XXZZ=           -547.7851 YYZZ=           -260.7838
 XXYZ=             -7.6867 YYXZ=              1.8339 ZZXY=             -4.7989
 N-N= 8.851658862957D+02 E-N=-7.673838437364D+03  KE= 2.468596548490D+03
 No NMR shielding tensors so no spin-rotation constants.
 Leave Link  601 at Wed Jun 24 01:15:43 2026, MaxMem=  1879048192 cpu:               0.3 elap:               0.1
 (Enter /CH/g16/l9999.exe)
 Unable to Open any file for archive entry.
 1\1\GINC-NODE0-CHCLUSTER\FOpt\RB3LYP\def2SVP\Al1B1Cl4H5O1Si1(1-)\LS\24
 -Jun-2026\0\\#p B3LYP/def2SVP EmpiricalDispersion=GD3BJ opt=(maxcycles
 =200) scf=xqc SCRF=(SMD,Solvent=Tetrahydrofuran) int=ultrafine\\BSiOx+
 AlCl4(-) restart\\-1,1\B,2.4863498783,1.7196104872,0.104089112\O,2.956
 1550793,0.585391528,-0.4645730291\Si,3.112441149,-0.9874021463,0.12838
 24163\H,2.0390516199,1.7061594538,1.2303697762\H,2.6412123277,2.759071
 7031,-0.4965473698\H,2.1516365032,-1.2298097232,1.2331446407\H,2.91468
 05147,-1.9245513628,-1.0021273654\H,4.5094603119,-1.1267823285,0.63212
 34475\Al,-1.1751981133,0.0755287407,0.0112126213\Cl,-0.3558581866,1.91
 26181789,-0.815960686\Cl,-0.2739568076,-1.6071987181,-1.0090183646\Cl,
 -3.3116294819,0.0556748343,-0.3082109956\Cl,-0.7442147949,-0.031480646
 9,2.1258357967\\Version=ES64L-G16RevC.02\State=1-A\HF=-2475.6239729\RM
 SD=9.060e-09\RMSF=1.965e-05\Dipole=1.5039816,-0.6615404,0.1625101\Quad
 rupole=-4.6859704,2.1862657,2.4997047,-3.1802159,1.5436396,0.0274249\P
 G=C01 [X(Al1B1Cl4H5O1Si1)]\\@
 The archive entry for this job was punched.


 ...THOSE SCIENCES ARE VAIN AND FULL OF ERRORS WHICH 
 ARE NOT BORN FROM EXPERIMENT, THE MOTHER OF CERTAINTY...

                          -- LEONARDO DA VINCI, 1452-1519
 Job cpu time:       0 days  0 hours 26 minutes 14.3 seconds.
 Elapsed time:       0 days  0 hours  3 minutes 50.6 seconds.
 File lengths (MBytes):  RWF=    130 Int=      0 D2E=      0 Chk=      6 Scr=      1
 Normal termination of Gaussian 16 at Wed Jun 24 01:15:43 2026.
