 Entering Gaussian System, Link 0=/CH/g16/g16
 Initial command:
 /CH/g16/l1.exe "/tmp/g16d3_BSiOx_2884047/Gau-2884062.inp" -scrdir="/tmp/g16d3_BSiOx_2884047/"
 Default is to use a total of  96 processors:
                               96 via shared-memory
                                1 via Linda
 Entering Link 1 = /CH/g16/l1.exe PID=   2884068.
  
 Copyright (c) 1988-2021, Gaussian, Inc.  All Rights Reserved.
  
 This is part of the Gaussian(R) 16 program.  It is based on
 the Gaussian(R) 09 system (copyright 2009, Gaussian, Inc.),
 the Gaussian(R) 03 system (copyright 2003, Gaussian, Inc.),
 the Gaussian(R) 98 system (copyright 1998, Gaussian, Inc.),
 the Gaussian(R) 94 system (copyright 1995, Gaussian, Inc.),
 the Gaussian 92(TM) system (copyright 1992, Gaussian, Inc.),
 the Gaussian 90(TM) system (copyright 1990, Gaussian, Inc.),
 the Gaussian 88(TM) system (copyright 1988, Gaussian, Inc.),
 the Gaussian 86(TM) system (copyright 1986, Carnegie Mellon
 University), and the Gaussian 82(TM) system (copyright 1983,
 Carnegie Mellon University). Gaussian is a federally registered
 trademark of Gaussian, Inc.
  
 This software contains proprietary and confidential information,
 including trade secrets, belonging to Gaussian, Inc.
  
 This software is provided under written license and may be
 used, copied, transmitted, or stored only in accord with that
 written license.
  
 The following legend is applicable only to US Government
 contracts under FAR:
  
                    RESTRICTED RIGHTS LEGEND
  
 Use, reproduction and disclosure by the US Government is
 subject to restrictions as set forth in subparagraphs (a)
 and (c) of the Commercial Computer Software - Restricted
 Rights clause in FAR 52.227-19.
  
 Gaussian, Inc.
 340 Quinnipiac St., Bldg. 40, Wallingford CT 06492
  
  
 ---------------------------------------------------------------
 Warning -- This program may not be used in any manner that
 competes with the business of Gaussian, Inc. or will provide
 assistance to any competitor of Gaussian, Inc.  The licensee
 of this program is prohibited from giving any competitor of
 Gaussian, Inc. access to this program.  By using this program,
 the user acknowledges that Gaussian, Inc. is engaged in the
 business of creating and licensing software in the field of
 computational chemistry and represents and warrants to the
 licensee that it is not a competitor of Gaussian, Inc. and that
 it will not use this program in any manner prohibited above.
 ---------------------------------------------------------------
  

 Cite this work as:
 Gaussian 16, Revision C.02,
 M. J. Frisch, G. W. Trucks, H. B. Schlegel, G. E. Scuseria, 
 M. A. Robb, J. R. Cheeseman, G. Scalmani, V. Barone, 
 G. A. Petersson, H. Nakatsuji, X. Li, M. Caricato, A. V. Marenich, 
 J. Bloino, B. G. Janesko, R. Gomperts, B. Mennucci, H. P. Hratchian, 
 J. V. Ortiz, A. F. Izmaylov, J. L. Sonnenberg, D. Williams-Young, 
 F. Ding, F. Lipparini, F. Egidi, J. Goings, B. Peng, A. Petrone, 
 T. Henderson, D. Ranasinghe, V. G. Zakrzewski, J. Gao, N. Rega, 
 G. Zheng, W. Liang, M. Hada, M. Ehara, K. Toyota, R. Fukuda, 
 J. Hasegawa, M. Ishida, T. Nakajima, Y. Honda, O. Kitao, H. Nakai, 
 T. Vreven, K. Throssell, J. A. Montgomery, Jr., J. E. Peralta, 
 F. Ogliaro, M. J. Bearpark, J. J. Heyd, E. N. Brothers, K. N. Kudin, 
 V. N. Staroverov, T. A. Keith, R. Kobayashi, J. Normand, 
 K. Raghavachari, A. P. Rendell, J. C. Burant, S. S. Iyengar, 
 J. Tomasi, M. Cossi, J. M. Millam, M. Klene, C. Adamo, R. Cammi, 
 J. W. Ochterski, R. L. Martin, K. Morokuma, O. Farkas, 
 J. B. Foresman, and D. J. Fox, Gaussian, Inc., Wallingford CT, 2019.
 
 ******************************************
 Gaussian 16:  ES64L-G16RevC.02  7-Dec-2021
                24-Jun-2026 
 ******************************************
 %chk=BSiOx.chk
 %nprocshared=8
 Will use up to    8 processors via shared memory.
 %mem=14GB
 ----------------------------------------------------------------------
 #p B3LYP/def2SVP EmpiricalDispersion=GD3BJ opt SCRF=(SMD,Solvent=Tetra
 hydrofuran) int=ultrafine
 ----------------------------------------------------------------------
 1/18=20,19=15,26=6,38=1/1,3;
 2/9=110,12=2,17=6,18=5,40=1/2;
 3/5=43,7=101,11=2,25=1,30=1,70=32201,71=1,72=20,74=-5,75=-5,124=41/1,2,3;
 4//1;
 5/5=2,38=5,53=20/2;
 6/7=2,8=2,9=2,10=2,28=1/1;
 7//1,2,3,16;
 1/18=20,19=15,26=6/3(2);
 2/9=110/2;
 99//99;
 2/9=110/2;
 3/5=43,7=101,11=2,25=1,30=1,70=32205,71=1,72=20,74=-5,75=-5,124=41/1,2,3;
 4/5=5,16=3,69=1/1;
 5/5=2,38=5,53=20/2;
 7//1,2,3,16;
 1/18=20,19=15,26=6/3(-5);
 2/9=110/2;
 6/7=2,8=2,9=2,10=2,19=2,28=1/1;
 99/9=1/99;
 Leave Link    1 at Wed Jun 24 00:57:37 2026, MaxMem=  1879048192 cpu:               4.1 elap:               0.1
 (Enter /CH/g16/l101.exe)
 -----
 BSiOx
 -----
 Symbolic Z-matrix:
 Charge =  0 Multiplicity = 1
 B                     0.        0.        0. 
 O                     1.36      0.        0.5 
 Si                    2.7       0.       -0.2 
 H                    -0.7       0.95     -0.4 
 H                    -0.7      -0.95     -0.4 
 H                     3.3       1.1       0.5 
 H                     3.3      -1.1       0.5 
 H                     2.9       0.       -1.6 
 
 Add atom      1 valence  3 ND=      2 dihedral       2      1      4      5
 ITRead=  0  0  0  0  0  0  0  0
 MicOpt= -1 -1 -1 -1 -1 -1 -1 -1
 NAtoms=      8 NQM=        8 NQMF=       0 NMMI=      0 NMMIF=      0
                NMic=       0 NMicF=      0.
                    Isotopes and Nuclear Properties:
 (Nuclear quadrupole moments (NQMom) in fm**2, nuclear magnetic moments (NMagM)
  in nuclear magnetons)

  Atom         1           2           3           4           5           6           7           8
 IAtWgt=          11          16          28           1           1           1           1           1
 AtmWgt=  11.0093053  15.9949146  27.9769284   1.0078250   1.0078250   1.0078250   1.0078250   1.0078250
 NucSpn=           3           0           0           1           1           1           1           1
 AtZEff=  -0.0000000  -0.0000000  -0.0000000  -0.0000000  -0.0000000  -0.0000000  -0.0000000  -0.0000000
 NQMom=    4.0590000   0.0000000   0.0000000   0.0000000   0.0000000   0.0000000   0.0000000   0.0000000
 NMagM=    2.6886370   0.0000000   0.0000000   2.7928460   2.7928460   2.7928460   2.7928460   2.7928460
 AtZNuc=   5.0000000   8.0000000  14.0000000   1.0000000   1.0000000   1.0000000   1.0000000   1.0000000
 Leave Link  101 at Wed Jun 24 00:57:38 2026, MaxMem=  1879048192 cpu:               0.4 elap:               0.4
 (Enter /CH/g16/l103.exe)

 GradGradGradGradGradGradGradGradGradGradGradGradGradGradGradGradGradGrad
 Berny optimization.
 Initialization pass.
                           ----------------------------
                           !    Initial Parameters    !
                           ! (Angstroms and Degrees)  !
 --------------------------                            --------------------------
 ! Name  Definition              Value          Derivative Info.                !
 --------------------------------------------------------------------------------
 ! R1    R(1,2)                  1.449          estimate D2E/DX2                !
 ! R2    R(1,4)                  1.246          estimate D2E/DX2                !
 ! R3    R(1,5)                  1.246          estimate D2E/DX2                !
 ! R4    R(2,3)                  1.5118         estimate D2E/DX2                !
 ! R5    R(3,6)                  1.4353         estimate D2E/DX2                !
 ! R6    R(3,7)                  1.4353         estimate D2E/DX2                !
 ! R7    R(3,8)                  1.4142         estimate D2E/DX2                !
 ! A1    A(2,1,4)              129.6481         estimate D2E/DX2                !
 ! A2    A(2,1,5)              129.6481         estimate D2E/DX2                !
 ! A3    A(4,1,5)               99.3602         estimate D2E/DX2                !
 ! A4    A(1,2,3)              132.2322         estimate D2E/DX2                !
 ! A5    A(2,3,6)               98.3204         estimate D2E/DX2                !
 ! A6    A(2,3,7)               98.3204         estimate D2E/DX2                !
 ! A7    A(2,3,8)              125.7121         estimate D2E/DX2                !
 ! A8    A(6,3,7)              100.0645         estimate D2E/DX2                !
 ! A9    A(6,3,8)              115.0679         estimate D2E/DX2                !
 ! A10   A(7,3,8)              115.0679         estimate D2E/DX2                !
 ! D1    D(4,1,2,3)            -81.978          estimate D2E/DX2                !
 ! D2    D(5,1,2,3)             81.978          estimate D2E/DX2                !
 ! D3    D(2,1,4,5)            167.5449         estimate D2E/DX2                !
 ! D4    D(1,2,3,6)            129.2349         estimate D2E/DX2                !
 ! D5    D(1,2,3,7)           -129.2349         estimate D2E/DX2                !
 ! D6    D(1,2,3,8)              0.0            estimate D2E/DX2                !
 --------------------------------------------------------------------------------
 Trust Radius=3.00D-01 FncErr=5.00D-06 GrdErr=5.00D-06 EigMax=2.50D+02 EigMin=1.00D-04
 Number of steps in this run=     33 maximum allowed number of steps=    100.
 GradGradGradGradGradGradGradGradGradGradGradGradGradGradGradGradGradGrad

 Leave Link  103 at Wed Jun 24 00:57:38 2026, MaxMem=  1879048192 cpu:               0.0 elap:               0.0
 (Enter /CH/g16/l202.exe)
                          Input orientation:                          
 ---------------------------------------------------------------------
 Center     Atomic      Atomic             Coordinates (Angstroms)
 Number     Number       Type             X           Y           Z
 ---------------------------------------------------------------------
      1          5           0        0.000000    0.000000    0.000000
      2          8           0        1.360000    0.000000    0.500000
      3         14           0        2.700000    0.000000   -0.200000
      4          1           0       -0.700000    0.950000   -0.400000
      5          1           0       -0.700000   -0.950000   -0.400000
      6          1           0        3.300000    1.100000    0.500000
      7          1           0        3.300000   -1.100000    0.500000
      8          1           0        2.900000    0.000000   -1.600000
 ---------------------------------------------------------------------
                    Distance matrix (angstroms):
                    1          2          3          4          5
     1  B    0.000000
     2  O    1.449000   0.000000
     3  Si   2.707397   1.511820   0.000000
     4  H    1.245994   2.440512   3.535887   0.000000
     5  H    1.245994   2.440512   3.535887   1.900000   0.000000
     6  H    3.514257   2.230157   1.435270   4.102743   4.583939
     7  H    3.514257   2.230157   1.435270   4.583939   4.102743
     8  H    3.312099   2.604151   1.414214   3.911841   3.911841
                    6          7          8
     6  H    0.000000
     7  H    2.200000   0.000000
     8  H    2.404163   2.404163   0.000000
 Stoichiometry    BH5OSi
 Framework group  CS[SG(BHOSi),X(H4)]
 Deg. of freedom    11
 Full point group                 CS      NOp   2
 Largest Abelian subgroup         CS      NOp   2
 Largest concise Abelian subgroup CS      NOp   2
                         Standard orientation:                         
 ---------------------------------------------------------------------
 Center     Atomic      Atomic             Coordinates (Angstroms)
 Number     Number       Type             X           Y           Z
 ---------------------------------------------------------------------
      1          5           0        1.369105    1.128715    0.000000
      2          8           0       -0.000000    0.654214    0.000000
      3         14           0       -0.593556   -0.736215   -0.000000
      4          1           0        2.164143    1.262559    0.950000
      5          1           0        2.164143    1.262559   -0.950000
      6          1           0       -1.501229   -0.574570    1.100000
      7          1           0       -1.501229   -0.574570   -1.100000
      8          1           0        0.138430   -1.946255    0.000000
 ---------------------------------------------------------------------
 Rotational constants (GHZ):          41.6643859           5.9763102           5.7313921
 Leave Link  202 at Wed Jun 24 00:57:38 2026, MaxMem=  1879048192 cpu:               0.0 elap:               0.0
 (Enter /CH/g16/l301.exe)
 Standard basis: def2SVP (5D, 7F)
 Ernie: Thresh=  0.10000D-02 Tol=  0.10000D-05 Strict=F.
 There are    50 symmetry adapted cartesian basis functions of A'  symmetry.
 There are    24 symmetry adapted cartesian basis functions of A"  symmetry.
 There are    47 symmetry adapted basis functions of A'  symmetry.
 There are    24 symmetry adapted basis functions of A"  symmetry.
    71 basis functions,   122 primitive gaussians,    74 cartesian basis functions
    16 alpha electrons       16 beta electrons
       nuclear repulsion energy       104.4072739390 Hartrees.
 IExCor=  402 DFT=T Ex+Corr=B3LYP ExCW=0 ScaHFX=  0.200000
 ScaDFX=  0.800000  0.720000  1.000000  0.810000 ScalE2=  1.000000  1.000000
 IRadAn=      5 IRanWt=     -1 IRanGd=            0 ICorTp=0 IEmpDi=141
 NAtoms=    8 NActive=    8 NUniq=    6 SFac= 1.78D+00 NAtFMM=   60 NAOKFM=F Big=F
 Integral buffers will be    131072 words long.
 Raffenetti 2 integral format.
 Two-electron integral symmetry is turned on.
 R6Disp:  Grimme-D3(BJ) Dispersion energy=       -0.0077056988 Hartrees.
 Nuclear repulsion after empirical dispersion term =      104.3995682402 Hartrees.
 ------------------------------------------------------------------------------
 Polarizable Continuum Model (PCM)
 =================================
 Model                : PCM.
 Atomic radii         : SMD-Coulomb.
 Polarization charges : Total charges.
 Charge compensation  : None.
 Solution method      : On-the-fly selection.
 Cavity type          : VdW (van der Waals Surface) (Alpha=1.000).
 Cavity algorithm     : GePol (No added spheres)
                        Default sphere list used, NSphG=    8.
                        Lebedev-Laikov grids with approx.  5.0 points / Ang**2.
                        Smoothing algorithm: York/Karplus (Gamma=1.0000).
                        Polarization charges: spherical gaussians, with
                                              point-specific exponents (IZeta= 3).
                        Self-potential: point-specific (ISelfS= 7).
                        Self-field    : sphere-specific E.n sum rule (ISelfD= 2).
 1st derivatives      : Analytical E(r).r(x)/FMM algorithm (CHGder, D1EAlg=3).
                        Cavity 1st derivative terms included.
 Solvent              : TetraHydroFuran, Eps=   7.425700 Eps(inf)=   1.974025
 ------------------------------------------------------------------------------
 Spheres list:
 ISph  on   Nord     Re0    Alpha      Xe            Ye            Ze
    1   B      1    1.8000  1.000      1.369105      1.128715     -0.000000
    2   O      2    2.2940  1.000      0.000000      0.654214      0.000000
    3  Si      3    2.4700  1.000     -0.593556     -0.736215     -0.000000
    4   H      4    1.2000  1.000      2.164143      1.262559      0.950000
    5   H      5    1.2000  1.000      2.164143      1.262559     -0.950000
    6   H      6    1.2000  1.000     -1.501229     -0.574570      1.100000
    7   H      7    1.2000  1.000     -1.501229     -0.574570     -1.100000
    8   H      8    1.2000  1.000      0.138430     -1.946255     -0.000000
 ------------------------------------------------------------------------------
 GePol: Number of generator spheres                  =       8
 GePol: Total number of spheres                      =       8
 GePol: Number of exposed spheres                    =       8 (100.00%)
 GePol: Number of points                             =     848
 GePol: Average weight of points                     =       0.13
 GePol: Minimum weight of points                     =   0.27D-06
 GePol: Maximum weight of points                     =    0.19536
 GePol: Number of points with low weight             =      34
 GePol: Fraction of low-weight points (<1% of avg)   =       4.01%
 GePol: Cavity surface area                          =    109.333 Ang**2
 GePol: Cavity volume                                =     95.633 Ang**3
 ------------------------------------------------------------------------------
 Atomic radii for non-electrostatic terms: SMD-CDS.
 ------------------------------------------------------------------------------
 PCM non-electrostatic energy =         0.0007030474 Hartrees.
 Nuclear repulsion after PCM non-electrostatic terms =      104.4002712876 Hartrees.
 Leave Link  301 at Wed Jun 24 00:57:38 2026, MaxMem=  1879048192 cpu:               0.1 elap:               0.0
 (Enter /CH/g16/l302.exe)
 NPDir=0 NMtPBC=     1 NCelOv=     1 NCel=       1 NClECP=     1 NCelD=      1
         NCelK=      1 NCelE2=     1 NClLst=     1 CellRange=     0.0.
 One-electron integrals computed using PRISM.
 One-electron integral symmetry used in STVInt
   2 Symmetry operations used in ECPInt.
 ECPInt:  NShTT=     630 NPrTT=    2342 LenC2=     630 LenP2D=    2043.
 LDataN:  DoStor=T MaxTD1= 4 Len=   56
 NBasis=    71 RedAO= T EigKep=  8.98D-03  NBF=    47    24
 NBsUse=    71 1.00D-06 EigRej= -1.00D+00 NBFU=    47    24
 Precomputing XC quadrature grid using
 IXCGrd= 4 IRadAn=           5 IRanWt=          -1 IRanGd=           0 AccXCQ= 0.00D+00.
 Generated NRdTot=       0 NPtTot=           0 NUsed=           0 NTot=          32
 NSgBfM=    74    74    74    74    74 MxSgAt=     8 MxSgA2=     8.
 Leave Link  302 at Wed Jun 24 00:57:38 2026, MaxMem=  1879048192 cpu:               0.3 elap:               0.1
 (Enter /CH/g16/l303.exe)
 DipDrv:  MaxL=1.
 Leave Link  303 at Wed Jun 24 00:57:38 2026, MaxMem=  1879048192 cpu:               0.1 elap:               0.0
 (Enter /CH/g16/l401.exe)
 ExpMin= 7.80D-02 ExpMax= 6.90D+03 ExpMxC= 1.04D+03 IAcc=3 IRadAn=         5 AccDes= 0.00D+00
 Harris functional with IExCor=  402 and IRadAn=       5 diagonalized for initial guess.
 HarFok:  IExCor=  402 AccDes= 0.00D+00 IRadAn=         5 IDoV= 1 UseB2=F ITyADJ=14
 ICtDFT=  3500011 ScaDFX=  1.000000  1.000000  1.000000  1.000000
 FoFCou: FMM=F IPFlag=           0 FMFlag=      100000 FMFlg1=           0
         NFxFlg=           0 DoJE=T BraDBF=F KetDBF=T FulRan=T
         wScrn=  0.000000 ICntrl=       500 IOpCl=  0 I1Cent=   200000004 NGrid=           0
         NMat0=    1 NMatS0=      1 NMatT0=    0 NMatD0=    1 NMtDS0=    0 NMtDT0=    0
 Petite list used in FoFCou.
 Harris En= -392.407685746082    
 JPrj=0 DoOrth=F DoCkMO=F.
 Initial guess orbital symmetries:
       Occupied  (A') (A') (A') (A') (A') (A') (A") (A') (A') (A')
                 (A') (A") (A') (A') (A") (A")
       Virtual   (A') (A') (A") (A') (A') (A") (A') (A') (A') (A")
                 (A') (A') (A') (A") (A') (A") (A') (A') (A") (A')
                 (A") (A') (A') (A') (A") (A') (A") (A') (A") (A')
                 (A') (A') (A') (A") (A') (A") (A") (A") (A') (A')
                 (A") (A") (A') (A') (A') (A') (A") (A') (A") (A')
                 (A") (A') (A") (A') (A')
 The electronic state of the initial guess is 1-A'.
 Leave Link  401 at Wed Jun 24 00:57:38 2026, MaxMem=  1879048192 cpu:               0.6 elap:               0.1
 (Enter /CH/g16/l502.exe)
 Keep R1 ints in memory in symmetry-blocked form, NReq=10456469.
 FoFCou: FMM=F IPFlag=           0 FMFlag=           0 FMFlg1=           0
         NFxFlg=           0 DoJE=F BraDBF=F KetDBF=F FulRan=T
         wScrn=  0.000000 ICntrl=       600 IOpCl=  0 I1Cent=           0 NGrid=           0
         NMat0=    1 NMatS0=   2556 NMatT0=    0 NMatD0=    1 NMtDS0=    0 NMtDT0=    0
 Petite list used in FoFCou.
 Closed shell SCF:
 Using DIIS extrapolation, IDIIS=  1040.
 NGot=  1879048192 LenX=  1877372339 LenY=  1877366422
 Requested convergence on RMS density matrix=1.00D-08 within 128 cycles.
 Requested convergence on MAX density matrix=1.00D-06.
 Requested convergence on             energy=1.00D-06.
 No special actions if energy rises.

 Cycle   1  Pass 1  IDiag  1:
 Inv3:  Mode=1 IEnd=     2157312.
 Iteration    1 A*A^-1 deviation from unit magnitude is 2.66D-15 for    363.
 Iteration    1 A*A^-1 deviation from orthogonality  is 1.17D-15 for    435    200.
 Iteration    1 A^-1*A deviation from unit magnitude is 2.66D-15 for    598.
 Iteration    1 A^-1*A deviation from orthogonality  is 1.98D-15 for    361    281.
 E= -392.334967675056    
 DIIS: error= 3.72D-02 at cycle   1 NSaved=   1.
 NSaved= 1 IEnMin= 1 EnMin= -392.334967675056     IErMin= 1 ErrMin= 3.72D-02
 ErrMax= 3.72D-02  0.00D+00 EMaxC= 1.00D-01 BMatC= 1.10D-01 BMatP= 1.10D-01
 IDIUse=3 WtCom= 6.28D-01 WtEn= 3.72D-01
 Coeff-Com:  0.100D+01
 Coeff-En:   0.100D+01
 Coeff:      0.100D+01
 Gap=     0.182 Goal=   None    Shift=    0.000
 GapD=    0.182 DampG=1.000 DampE=0.500 DampFc=0.5000 IDamp=-1.
 Damping current iteration by 5.00D-01
 RMSDP=9.22D-03 MaxDP=1.72D-01              OVMax= 2.20D-01

 Cycle   2  Pass 1  IDiag  1:
 E= -392.353123279984     Delta-E=       -0.018155604928 Rises=F Damp=T
 DIIS: error= 1.93D-02 at cycle   2 NSaved=   2.
 NSaved= 2 IEnMin= 2 EnMin= -392.353123279984     IErMin= 2 ErrMin= 1.93D-02
 ErrMax= 1.93D-02  0.00D+00 EMaxC= 1.00D-01 BMatC= 1.77D-02 BMatP= 1.10D-01
 IDIUse=3 WtCom= 8.07D-01 WtEn= 1.93D-01
 Coeff-Com:  0.241D+00 0.759D+00
 Coeff-En:   0.392D+00 0.608D+00
 Coeff:      0.270D+00 0.730D+00
 Gap=     0.237 Goal=   None    Shift=    0.000
 RMSDP=2.59D-03 MaxDP=3.35D-02 DE=-1.82D-02 OVMax= 1.21D-01

 Cycle   3  Pass 1  IDiag  1:
 E= -392.422454232697     Delta-E=       -0.069330952713 Rises=F Damp=F
 DIIS: error= 5.88D-03 at cycle   3 NSaved=   3.
 NSaved= 3 IEnMin= 3 EnMin= -392.422454232697     IErMin= 3 ErrMin= 5.88D-03
 ErrMax= 5.88D-03  0.00D+00 EMaxC= 1.00D-01 BMatC= 1.85D-03 BMatP= 1.77D-02
 IDIUse=3 WtCom= 9.41D-01 WtEn= 5.88D-02
 Coeff-Com:  0.233D-02 0.241D+00 0.757D+00
 Coeff-En:   0.000D+00 0.000D+00 0.100D+01
 Coeff:      0.219D-02 0.227D+00 0.771D+00
 Gap=     0.221 Goal=   None    Shift=    0.000
 RMSDP=6.47D-04 MaxDP=8.18D-03 DE=-6.93D-02 OVMax= 1.41D-02

 Cycle   4  Pass 1  IDiag  1:
 E= -392.424396362239     Delta-E=       -0.001942129542 Rises=F Damp=F
 DIIS: error= 2.94D-04 at cycle   4 NSaved=   4.
 NSaved= 4 IEnMin= 4 EnMin= -392.424396362239     IErMin= 4 ErrMin= 2.94D-04
 ErrMax= 2.94D-04  0.00D+00 EMaxC= 1.00D-01 BMatC= 1.28D-05 BMatP= 1.85D-03
 IDIUse=3 WtCom= 9.97D-01 WtEn= 2.94D-03
 Coeff-Com: -0.973D-03 0.173D-01 0.108D+00 0.875D+00
 Coeff-En:   0.000D+00 0.000D+00 0.000D+00 0.100D+01
 Coeff:     -0.970D-03 0.173D-01 0.108D+00 0.876D+00
 Gap=     0.221 Goal=   None    Shift=    0.000
 RMSDP=8.41D-05 MaxDP=2.20D-03 DE=-1.94D-03 OVMax= 1.55D-03

 Cycle   5  Pass 1  IDiag  1:
 E= -392.424410306647     Delta-E=       -0.000013944408 Rises=F Damp=F
 DIIS: error= 1.18D-04 at cycle   5 NSaved=   5.
 NSaved= 5 IEnMin= 5 EnMin= -392.424410306647     IErMin= 5 ErrMin= 1.18D-04
 ErrMax= 1.18D-04  0.00D+00 EMaxC= 1.00D-01 BMatC= 1.55D-06 BMatP= 1.28D-05
 IDIUse=3 WtCom= 9.99D-01 WtEn= 1.18D-03
 Coeff-Com: -0.403D-03-0.147D-02 0.123D-01 0.311D+00 0.679D+00
 Coeff-En:   0.000D+00 0.000D+00 0.000D+00 0.000D+00 0.100D+01
 Coeff:     -0.403D-03-0.147D-02 0.123D-01 0.311D+00 0.679D+00
 Gap=     0.220 Goal=   None    Shift=    0.000
 RMSDP=2.53D-05 MaxDP=7.55D-04 DE=-1.39D-05 OVMax= 3.60D-04

 Cycle   6  Pass 1  IDiag  1:
 E= -392.424412182458     Delta-E=       -0.000001875811 Rises=F Damp=F
 DIIS: error= 2.04D-05 at cycle   6 NSaved=   6.
 NSaved= 6 IEnMin= 6 EnMin= -392.424412182458     IErMin= 6 ErrMin= 2.04D-05
 ErrMax= 2.04D-05  0.00D+00 EMaxC= 1.00D-01 BMatC= 2.58D-08 BMatP= 1.55D-06
 IDIUse=1 WtCom= 1.00D+00 WtEn= 0.00D+00
 Coeff-Com: -0.453D-04-0.811D-03 0.354D-03 0.528D-01 0.168D+00 0.780D+00
 Coeff:     -0.453D-04-0.811D-03 0.354D-03 0.528D-01 0.168D+00 0.780D+00
 Gap=     0.221 Goal=   None    Shift=    0.000
 RMSDP=2.76D-06 MaxDP=4.87D-05 DE=-1.88D-06 OVMax= 5.88D-05

 Cycle   7  Pass 1  IDiag  1:
 E= -392.424412210176     Delta-E=       -0.000000027718 Rises=F Damp=F
 DIIS: error= 3.39D-06 at cycle   7 NSaved=   7.
 NSaved= 7 IEnMin= 7 EnMin= -392.424412210176     IErMin= 7 ErrMin= 3.39D-06
 ErrMax= 3.39D-06  0.00D+00 EMaxC= 1.00D-01 BMatC= 8.07D-10 BMatP= 2.58D-08
 IDIUse=1 WtCom= 1.00D+00 WtEn= 0.00D+00
 Coeff-Com: -0.893D-05-0.165D-03-0.528D-03 0.138D-03 0.137D-01 0.170D+00
 Coeff-Com:  0.816D+00
 Coeff:     -0.893D-05-0.165D-03-0.528D-03 0.138D-03 0.137D-01 0.170D+00
 Coeff:      0.816D+00
 Gap=     0.220 Goal=   None    Shift=    0.000
 RMSDP=5.24D-07 MaxDP=1.18D-05 DE=-2.77D-08 OVMax= 8.90D-06

 Cycle   8  Pass 1  IDiag  1:
 E= -392.424412211044     Delta-E=       -0.000000000867 Rises=F Damp=F
 DIIS: error= 5.78D-07 at cycle   8 NSaved=   8.
 NSaved= 8 IEnMin= 8 EnMin= -392.424412211044     IErMin= 8 ErrMin= 5.78D-07
 ErrMax= 5.78D-07  0.00D+00 EMaxC= 1.00D-01 BMatC= 1.94D-11 BMatP= 8.07D-10
 IDIUse=1 WtCom= 1.00D+00 WtEn= 0.00D+00
 Coeff-Com: -0.359D-05 0.505D-05-0.662D-04-0.930D-03-0.474D-03 0.137D-01
 Coeff-Com:  0.143D+00 0.845D+00
 Coeff:     -0.359D-05 0.505D-05-0.662D-04-0.930D-03-0.474D-03 0.137D-01
 Coeff:      0.143D+00 0.845D+00
 Gap=     0.220 Goal=   None    Shift=    0.000
 RMSDP=1.04D-07 MaxDP=2.26D-06 DE=-8.67D-10 OVMax= 1.88D-06

 Cycle   9  Pass 1  IDiag  1:
 E= -392.424412211066     Delta-E=       -0.000000000022 Rises=F Damp=F
 DIIS: error= 1.38D-07 at cycle   9 NSaved=   9.
 NSaved= 9 IEnMin= 9 EnMin= -392.424412211066     IErMin= 9 ErrMin= 1.38D-07
 ErrMax= 1.38D-07  0.00D+00 EMaxC= 1.00D-01 BMatC= 1.80D-12 BMatP= 1.94D-11
 IDIUse=1 WtCom= 1.00D+00 WtEn= 0.00D+00
 Coeff-Com: -0.174D-05 0.682D-05-0.880D-05-0.284D-03-0.788D-03-0.342D-02
 Coeff-Com: -0.527D-02 0.188D+00 0.822D+00
 Coeff:     -0.174D-05 0.682D-05-0.880D-05-0.284D-03-0.788D-03-0.342D-02
 Coeff:     -0.527D-02 0.188D+00 0.822D+00
 Gap=     0.220 Goal=   None    Shift=    0.000
 RMSDP=2.37D-08 MaxDP=6.31D-07 DE=-2.23D-11 OVMax= 3.73D-07

 Cycle  10  Pass 1  IDiag  1:
 E= -392.424412211071     Delta-E=       -0.000000000005 Rises=F Damp=F
 DIIS: error= 3.04D-08 at cycle  10 NSaved=  10.
 NSaved=10 IEnMin=10 EnMin= -392.424412211071     IErMin=10 ErrMin= 3.04D-08
 ErrMax= 3.04D-08  0.00D+00 EMaxC= 1.00D-01 BMatC= 5.42D-14 BMatP= 1.80D-12
 IDIUse=1 WtCom= 1.00D+00 WtEn= 0.00D+00
 Coeff-Com: -0.396D-06 0.871D-06-0.112D-05-0.154D-05-0.571D-04-0.384D-03
 Coeff-Com: -0.387D-02 0.506D-03 0.975D-01 0.906D+00
 Coeff:     -0.396D-06 0.871D-06-0.112D-05-0.154D-05-0.571D-04-0.384D-03
 Coeff:     -0.387D-02 0.506D-03 0.975D-01 0.906D+00
 Gap=     0.220 Goal=   None    Shift=    0.000
 RMSDP=4.28D-09 MaxDP=5.36D-08 DE=-4.66D-12 OVMax= 7.78D-08

 Error on total polarization charges =  0.02742
 SCF Done:  E(RB3LYP) =  -392.424412211     A.U. after   10 cycles
            NFock= 10  Conv=0.43D-08     -V/T= 2.0040
 KE= 3.908650186764D+02 PE=-1.138408911476D+03 EE= 2.507192093005D+02
 SMD-CDS (non-electrostatic) energy       (kcal/mol) =       0.44
 (included in total energy above)
 Leave Link  502 at Wed Jun 24 00:57:39 2026, MaxMem=  1879048192 cpu:               6.8 elap:               1.0
 (Enter /CH/g16/l601.exe)
 Copying SCF densities to generalized density rwf, IOpCl= 0 IROHF=0.

 **********************************************************************

            Population analysis using the SCF Density.

 **********************************************************************

 Orbital symmetries:
       Occupied  (A') (A') (A') (A') (A') (A") (A') (A') (A') (A')
                 (A') (A") (A') (A') (A") (A")
       Virtual   (A') (A') (A") (A') (A') (A') (A") (A') (A') (A")
                 (A') (A') (A') (A") (A') (A') (A") (A") (A') (A')
                 (A") (A') (A') (A') (A") (A') (A") (A') (A") (A')
                 (A') (A') (A') (A") (A') (A") (A") (A") (A') (A')
                 (A") (A") (A') (A') (A') (A') (A") (A') (A") (A')
                 (A") (A') (A") (A') (A')
 The electronic state is 1-A'.
 Alpha  occ. eigenvalues --  -66.11646 -19.14875  -6.83107  -5.29153  -3.65559
 Alpha  occ. eigenvalues --   -3.65143  -3.65138  -1.02082  -0.59949  -0.49289
 Alpha  occ. eigenvalues --   -0.44317  -0.43018  -0.42452  -0.34051  -0.32809
 Alpha  occ. eigenvalues --   -0.27295
 Alpha virt. eigenvalues --   -0.05245   0.02243   0.06539   0.09728   0.12196
 Alpha virt. eigenvalues --    0.15609   0.16731   0.17276   0.21642   0.25839
 Alpha virt. eigenvalues --    0.28404   0.29155   0.33143   0.33884   0.37924
 Alpha virt. eigenvalues --    0.47317   0.48150   0.53108   0.53476   0.56763
 Alpha virt. eigenvalues --    0.61840   0.65722   0.70983   0.88602   0.91872
 Alpha virt. eigenvalues --    0.93131   0.95217   1.04770   1.13333   1.14965
 Alpha virt. eigenvalues --    1.21534   1.30536   1.32333   1.38959   1.43423
 Alpha virt. eigenvalues --    1.46761   1.51036   1.59878   1.64845   1.70068
 Alpha virt. eigenvalues --    1.72894   1.75808   1.80300   1.82770   2.08767
 Alpha virt. eigenvalues --    2.14085   2.18333   2.29034   2.39059   2.40682
 Alpha virt. eigenvalues --    2.71089   2.75838   3.10680   3.18160   3.26707
          Condensed to atoms (all electrons):
               1          2          3          4          5          6
     1  B    3.594572   0.442762  -0.027982   0.383020   0.383020   0.001553
     2  O    0.442762   7.535290   0.437096  -0.020146  -0.020146  -0.033226
     3  Si  -0.027982   0.437096  11.824181   0.001549   0.001549   0.392940
     4  H    0.383020  -0.020146   0.001549   0.783552  -0.093246   0.000941
     5  H    0.383020  -0.020146   0.001549  -0.093246   0.783552  -0.000519
     6  H    0.001553  -0.033226   0.392940   0.000941  -0.000519   0.851842
     7  H    0.001553  -0.033226   0.392940  -0.000519   0.000941  -0.030539
     8  H   -0.008890  -0.011867   0.389115   0.000229   0.000229  -0.027765
               7          8
     1  B    0.001553  -0.008890
     2  O   -0.033226  -0.011867
     3  Si   0.392940   0.389115
     4  H   -0.000519   0.000229
     5  H    0.000941   0.000229
     6  H   -0.030539  -0.027765
     7  H    0.851842  -0.027765
     8  H   -0.027765   0.787966
 Mulliken charges:
               1
     1  B    0.230392
     2  O   -0.296535
     3  Si   0.588611
     4  H   -0.055381
     5  H   -0.055381
     6  H   -0.155227
     7  H   -0.155227
     8  H   -0.101252
 Sum of Mulliken charges =  -0.00000
 Mulliken charges with hydrogens summed into heavy atoms:
               1
     1  B    0.119630
     2  O   -0.296535
     3  Si   0.176905
 Electronic spatial extent (au):  <R**2>=            267.8338
 Charge=             -0.0000 electrons
 Dipole moment (field-independent basis, Debye):
    X=              1.2203    Y=             -0.5447    Z=             -0.0000  Tot=              1.3363
 Quadrupole moment (field-independent basis, Debye-Ang):
   XX=            -29.4525   YY=            -25.4212   ZZ=            -29.4684
   XY=             -0.1818   XZ=             -0.0000   YZ=              0.0000
 Traceless Quadrupole moment (field-independent basis, Debye-Ang):
   XX=             -1.3384   YY=              2.6928   ZZ=             -1.3544
   XY=             -0.1818   XZ=             -0.0000   YZ=              0.0000
 Octapole moment (field-independent basis, Debye-Ang**2):
  XXX=             -5.0460  YYY=              2.6304  ZZZ=             -0.0000  XYY=             -1.8729
  XXY=             -1.4095  XXZ=              0.0000  XZZ=             -1.0038  YZZ=             -1.1197
  YYZ=              0.0000  XYZ=              0.0000
 Hexadecapole moment (field-independent basis, Debye-Ang**3):
 XXXX=           -216.5799 YYYY=           -157.4937 ZZZZ=            -65.5383 XXXY=            -68.5631
 XXXZ=             -0.0000 YYYX=            -55.4035 YYYZ=              0.0000 ZZZX=              0.0000
 ZZZY=             -0.0000 XXYY=            -63.1406 XXZZ=            -52.0691 YYZZ=            -41.1618
 XXYZ=              0.0000 YYXZ=              0.0000 ZZXY=            -25.2013
 N-N= 1.044002712876D+02 E-N=-1.138408908564D+03  KE= 3.908650186764D+02
 Symmetry A'   KE= 3.589616249106D+02
 Symmetry A"   KE= 3.190339376581D+01
 No NMR shielding tensors so no spin-rotation constants.
 Leave Link  601 at Wed Jun 24 00:57:39 2026, MaxMem=  1879048192 cpu:               0.3 elap:               0.1
 (Enter /CH/g16/l701.exe)
 ... and contract with generalized density number  0.
 Compute integral first derivatives.
 R6Disp: Adding Grimme-D3(BJ) dispersion energy 1st derivatives to the gradient.
   2 Symmetry operations used in ECPInt.
 ECPInt:  NShTT=     630 NPrTT=    2342 LenC2=     630 LenP2D=    2043.
 LDataN:  DoStor=T MaxTD1= 5 Len=  102
 D1PCM: PCM CHGder 1st derivatives, ID1Alg=3 FixD1E=F DoIter=F DoCFld=F I1PDM=0.
 GePol: Maximum number of non-zero 1st derivatives   =     435
 Leave Link  701 at Wed Jun 24 00:57:39 2026, MaxMem=  1879048192 cpu:               1.5 elap:               0.2
 (Enter /CH/g16/l702.exe)
 L702 exits ... SP integral derivatives will be done elsewhere.
 Leave Link  702 at Wed Jun 24 00:57:39 2026, MaxMem=  1879048192 cpu:               0.0 elap:               0.0
 (Enter /CH/g16/l703.exe)
 Integral derivatives from FoFJK, PRISM(SPDF).
 Compute integral first derivatives, UseDBF=F ICtDFT=           0.
 Calling FoFJK, ICntrl=      2127 FMM=F ISym2X=1 I1Cent= 0 IOpClX= 0 NMat=1 NMatS=1 NMatT=0.
 FoFJK:  IHMeth= 1 ICntrl=    2127 DoSepK=F KAlg= 0 I1Cent=           0 FoldK=F
 IRaf=         0 NMat=       1 IRICut=       1 DoRegI=T DoRafI=F ISym2E= 1 IDoP0=0 IntGTp=1.
 FoFCou: FMM=F IPFlag=           0 FMFlag=      100000 FMFlg1=         800
         NFxFlg=           0 DoJE=F BraDBF=F KetDBF=F FulRan=T
         wScrn=  0.000000 ICntrl=      2127 IOpCl=  0 I1Cent=           0 NGrid=           0
         NMat0=    1 NMatS0=      1 NMatT0=    0 NMatD0=    1 NMtDS0=    0 NMtDT0=    0
 Petite list used in FoFCou.
 Leave Link  703 at Wed Jun 24 00:57:40 2026, MaxMem=  1879048192 cpu:               0.9 elap:               0.2
 (Enter /CH/g16/l716.exe)
 Dipole        = 4.80084886D-01-2.14291530D-01-4.44089210D-16
 ***** Axes restored to original set *****
 -------------------------------------------------------------------
 Center     Atomic                   Forces (Hartrees/Bohr)
 Number     Number              X              Y              Z
 -------------------------------------------------------------------
      1        5           0.014139676    0.000000000   -0.012553518
      2        8          -0.216055332    0.000000000    0.018952212
      3       14           0.118103328   -0.000000000   -0.005952900
      4        1           0.022124240    0.007193940    0.017820937
      5        1           0.022124240   -0.007193940    0.017820937
      6        1           0.021505985    0.025582484   -0.003004744
      7        1           0.021505985   -0.025582484   -0.003004744
      8        1          -0.003448122   -0.000000000   -0.030078181
 -------------------------------------------------------------------
 Cartesian Forces:  Max     0.216055332 RMS     0.052546279
 Leave Link  716 at Wed Jun 24 00:57:40 2026, MaxMem=  1879048192 cpu:               0.0 elap:               0.0
 (Enter /CH/g16/l103.exe)

 GradGradGradGradGradGradGradGradGradGradGradGradGradGradGradGradGradGrad
 Berny optimization.
 FormGI is forming the generalized inverse of G from B-inverse, IUseBI=4.
 Internal  Forces:  Max     0.159215680 RMS     0.041371063
 Search for a local minimum.
 Step number   1 out of a maximum of   33
 All quantities printed in internal units (Hartrees-Bohrs-Radians)
 RMS Force = .41371D-01 SwitMx=.10000D-02 MixMth= 1
 Mixed Optimization -- RFO/linear search
 Second derivative matrix not updated -- first step.
 ITU=  0
     Eigenvalues ---    0.00968   0.01573   0.05506   0.10570   0.12720
     Eigenvalues ---    0.15813   0.16000   0.16000   0.16000   0.16000
     Eigenvalues ---    0.20061   0.20061   0.21274   0.21591   0.21591
     Eigenvalues ---    0.25000   0.38376   0.72892
 RFO step:  Lambda=-8.08206825D-02 EMin= 9.67854644D-03
 Linear search not attempted -- first point.
 Maximum step size (   0.300) exceeded in Quadratic search.
    -- Step size scaled by   0.652
 Iteration  1 RMS(Cart)=  0.07215547 RMS(Int)=  0.00335358
 Iteration  2 RMS(Cart)=  0.00273004 RMS(Int)=  0.00178200
 Iteration  3 RMS(Cart)=  0.00001597 RMS(Int)=  0.00178198
 Iteration  4 RMS(Cart)=  0.00000007 RMS(Int)=  0.00178198
 ITry= 1 IFail=0 DXMaxC= 1.87D-01 DCOld= 1.00D+10 DXMaxT= 3.00D-01 DXLimC= 3.00D+00 Rises=F
 ClnCor:  largest displacement from symmetrization is 5.19D-03 for atom     5.
 Variable       Old X    -DE/DX   Delta X   Delta X   Delta X     New X
                                 (Linear)    (Quad)   (Total)
    R1        2.73821  -0.06277   0.00000  -0.08809  -0.08809   2.65012
    R2        2.35459  -0.01267   0.00000  -0.02783  -0.02662   2.32797
    R3        2.35459  -0.01267   0.00000  -0.02783  -0.02662   2.32797
    R4        2.85693   0.15922   0.00000   0.12819   0.12819   2.98512
    R5        2.71227   0.02713   0.00000   0.06285   0.06276   2.77503
    R6        2.71227   0.02713   0.00000   0.06285   0.06276   2.77503
    R7        2.67248   0.02929   0.00000   0.06505   0.06505   2.73752
    A1        2.26279  -0.01874   0.00000  -0.04804  -0.04918   2.21361
    A2        2.26279  -0.01981   0.00000  -0.05132  -0.04918   2.21361
    A3        1.73416   0.04000   0.00000   0.11113   0.10891   1.84307
    A4        2.30789   0.01789   0.00000   0.03525   0.03525   2.34314
    A5        1.71602   0.03636   0.00000   0.09851   0.09734   1.81336
    A6        1.71602   0.03636   0.00000   0.09851   0.09734   1.81336
    A7        2.19409  -0.03581   0.00000  -0.09911  -0.09896   2.09513
    A8        1.74646   0.00799   0.00000   0.03042   0.02489   1.77134
    A9        2.00831  -0.01437   0.00000  -0.04092  -0.04066   1.96765
   A10        2.00831  -0.01437   0.00000  -0.04092  -0.04066   1.96765
    D1       -1.43079  -0.00708   0.00000  -0.04249  -0.04148  -1.47226
    D2        1.43079   0.00708   0.00000   0.04249   0.04148   1.47226
    D3        2.92421   0.00580   0.00000   0.05184   0.05395   2.97816
    D4        2.25557  -0.01061   0.00000  -0.03326  -0.03744   2.21813
    D5       -2.25557   0.01061   0.00000   0.03326   0.03744  -2.21813
    D6       -0.00000   0.00000   0.00000  -0.00000   0.00000   0.00000
         Item               Value     Threshold  Converged?
 Maximum Force            0.159216     0.000450     NO 
 RMS     Force            0.041371     0.000300     NO 
 Maximum Displacement     0.186915     0.001800     NO 
 RMS     Displacement     0.071937     0.001200     NO 
 Predicted change in Energy=-3.940794D-02
 Lowest energy point so far.  Saving SCF results.
 GradGradGradGradGradGradGradGradGradGradGradGradGradGradGradGradGradGrad

 Leave Link  103 at Wed Jun 24 00:57:40 2026, MaxMem=  1879048192 cpu:               0.0 elap:               0.0
 (Enter /CH/g16/l202.exe)
                          Input orientation:                          
 ---------------------------------------------------------------------
 Center     Atomic      Atomic             Coordinates (Angstroms)
 Number     Number       Type             X           Y           Z
 ---------------------------------------------------------------------
      1          5           0       -0.040601    0.000000   -0.033144
      2          8           0        1.261089   -0.000000    0.488667
      3         14           0        2.705256   -0.000000   -0.151411
      4          1           0       -0.689950    0.981252   -0.397952
      5          1           0       -0.689950   -0.981252   -0.397952
      6          1           0        3.376054    1.137104    0.491599
      7          1           0        3.376054   -1.137104    0.491599
      8          1           0        2.860160    0.000000   -1.591740
 ---------------------------------------------------------------------
                    Distance matrix (angstroms):
                    1          2          3          4          5
     1  B    0.000000
     2  O    1.402385   0.000000
     3  Si   2.748403   1.579658   0.000000
     4  H    1.231907   2.357011   3.542748   0.000000
     5  H    1.231907   2.357011   3.542748   1.962504   0.000000
     6  H    3.638942   2.401269   1.468481   4.165091   4.670238
     7  H    3.638942   2.401269   1.468481   4.670238   4.165091
     8  H    3.292968   2.623952   1.448635   3.871855   3.871855
                    6          7          8
     6  H    0.000000
     7  H    2.274208   0.000000
     8  H    2.428879   2.428879   0.000000
 Stoichiometry    BH5OSi
 Framework group  CS[SG(BHOSi),X(H4)]
 Deg. of freedom    11
 Full point group                 CS      NOp   2
 RotChk:  IX=0 Diff= 1.51D-01
 Largest Abelian subgroup         CS      NOp   2
 Largest concise Abelian subgroup CS      NOp   2
                         Standard orientation:                         
 ---------------------------------------------------------------------
 Center     Atomic      Atomic             Coordinates (Angstroms)
 Number     Number       Type             X           Y           Z
 ---------------------------------------------------------------------
      1          5           0        1.285492    1.246768    0.000000
      2          8           0       -0.000000    0.686237    0.000000
      3         14           0       -0.558175   -0.791518    0.000000
      4          1           0        2.001173    1.453018    0.981252
      5          1           0        2.001173    1.453018   -0.981252
      6          1           0       -1.487016   -0.817715    1.137104
      7          1           0       -1.487016   -0.817715   -1.137104
      8          1           0        0.358686   -1.913084    0.000000
 ---------------------------------------------------------------------
 Rotational constants (GHZ):          42.3160669           5.7349148           5.5553189
 Leave Link  202 at Wed Jun 24 00:57:40 2026, MaxMem=  1879048192 cpu:               0.0 elap:               0.0
 (Enter /CH/g16/l301.exe)
 Standard basis: def2SVP (5D, 7F)
 Ernie: Thresh=  0.10000D-02 Tol=  0.10000D-05 Strict=F.
 There are    50 symmetry adapted cartesian basis functions of A'  symmetry.
 There are    24 symmetry adapted cartesian basis functions of A"  symmetry.
 There are    47 symmetry adapted basis functions of A'  symmetry.
 There are    24 symmetry adapted basis functions of A"  symmetry.
    71 basis functions,   122 primitive gaussians,    74 cartesian basis functions
    16 alpha electrons       16 beta electrons
       nuclear repulsion energy       102.4542597283 Hartrees.
 IExCor=  402 DFT=T Ex+Corr=B3LYP ExCW=0 ScaHFX=  0.200000
 ScaDFX=  0.800000  0.720000  1.000000  0.810000 ScalE2=  1.000000  1.000000
 IRadAn=      5 IRanWt=     -1 IRanGd=            0 ICorTp=0 IEmpDi=141
 NAtoms=    8 NActive=    8 NUniq=    6 SFac= 1.78D+00 NAtFMM=   60 NAOKFM=F Big=F
 Integral buffers will be    131072 words long.
 Raffenetti 2 integral format.
 Two-electron integral symmetry is turned on.
 R6Disp:  Grimme-D3(BJ) Dispersion energy=       -0.0076375882 Hartrees.
 Nuclear repulsion after empirical dispersion term =      102.4466221401 Hartrees.
 ------------------------------------------------------------------------------
 Polarizable Continuum Model (PCM)
 =================================
 Model                : PCM.
 Atomic radii         : SMD-Coulomb.
 Polarization charges : Total charges.
 Charge compensation  : None.
 Solution method      : On-the-fly selection.
 Cavity type          : VdW (van der Waals Surface) (Alpha=1.000).
 Cavity algorithm     : GePol (No added spheres)
                        Default sphere list used, NSphG=    8.
                        Lebedev-Laikov grids with approx.  5.0 points / Ang**2.
                        Smoothing algorithm: York/Karplus (Gamma=1.0000).
                        Polarization charges: spherical gaussians, with
                                              point-specific exponents (IZeta= 3).
                        Self-potential: point-specific (ISelfS= 7).
                        Self-field    : sphere-specific E.n sum rule (ISelfD= 2).
 1st derivatives      : Analytical E(r).r(x)/FMM algorithm (CHGder, D1EAlg=3).
                        Cavity 1st derivative terms included.
 Solvent              : TetraHydroFuran, Eps=   7.425700 Eps(inf)=   1.974025
 ------------------------------------------------------------------------------
 Spheres list:
 ISph  on   Nord     Re0    Alpha      Xe            Ye            Ze
    1   B      1    1.8000  1.000      1.285492      1.246768     -0.000000
    2   O      2    2.2940  1.000      0.000000      0.686237     -0.000000
    3  Si      3    2.4700  1.000     -0.558175     -0.791518     -0.000000
    4   H      4    1.2000  1.000      2.001173      1.453018      0.981252
    5   H      5    1.2000  1.000      2.001173      1.453018     -0.981252
    6   H      6    1.2000  1.000     -1.487016     -0.817715      1.137104
    7   H      7    1.2000  1.000     -1.487016     -0.817715     -1.137104
    8   H      8    1.2000  1.000      0.358686     -1.913084     -0.000000
 ------------------------------------------------------------------------------
 GePol: Number of generator spheres                  =       8
 GePol: Total number of spheres                      =       8
 GePol: Number of exposed spheres                    =       8 (100.00%)
 GePol: Number of points                             =     843
 GePol: Average weight of points                     =       0.13
 GePol: Minimum weight of points                     =   0.15D-05
 GePol: Maximum weight of points                     =    0.19536
 GePol: Number of points with low weight             =      36
 GePol: Fraction of low-weight points (<1% of avg)   =       4.27%
 GePol: Cavity surface area                          =    109.858 Ang**2
 GePol: Cavity volume                                =     96.243 Ang**3
 ------------------------------------------------------------------------------
 Atomic radii for non-electrostatic terms: SMD-CDS.
 ------------------------------------------------------------------------------
 PCM non-electrostatic energy =         0.0007345716 Hartrees.
 Nuclear repulsion after PCM non-electrostatic terms =      102.4473567117 Hartrees.
 Leave Link  301 at Wed Jun 24 00:57:40 2026, MaxMem=  1879048192 cpu:               0.0 elap:               0.0
 (Enter /CH/g16/l302.exe)
 NPDir=0 NMtPBC=     1 NCelOv=     1 NCel=       1 NClECP=     1 NCelD=      1
         NCelK=      1 NCelE2=     1 NClLst=     1 CellRange=     0.0.
 One-electron integrals computed using PRISM.
 One-electron integral symmetry used in STVInt
   2 Symmetry operations used in ECPInt.
 ECPInt:  NShTT=     630 NPrTT=    2342 LenC2=     630 LenP2D=    2038.
 LDataN:  DoStor=T MaxTD1= 4 Len=   56
 NBasis=    71 RedAO= T EigKep=  1.06D-02  NBF=    47    24
 NBsUse=    71 1.00D-06 EigRej= -1.00D+00 NBFU=    47    24
 Precomputing XC quadrature grid using
 IXCGrd= 4 IRadAn=           5 IRanWt=          -1 IRanGd=           0 AccXCQ= 0.00D+00.
 Generated NRdTot=       0 NPtTot=           0 NUsed=           0 NTot=          32
 NSgBfM=    74    74    74    74    74 MxSgAt=     8 MxSgA2=     8.
 Leave Link  302 at Wed Jun 24 00:57:40 2026, MaxMem=  1879048192 cpu:               0.3 elap:               0.1
 (Enter /CH/g16/l303.exe)
 DipDrv:  MaxL=1.
 Leave Link  303 at Wed Jun 24 00:57:40 2026, MaxMem=  1879048192 cpu:               0.0 elap:               0.0
 (Enter /CH/g16/l401.exe)
 Initial guess from the checkpoint file:  "BSiOx.chk"
 B after Tr=    -0.000000   -0.000000    0.000000
         Rot=    0.999120   -0.000000   -0.000000   -0.041947 Ang=  -4.81 deg.
 Guess basis will be translated and rotated to current coordinates.
 JPrj=2 DoOrth=T DoCkMO=T.
 Initial guess orbital symmetries:
       Occupied  (A') (A') (A') (A') (A') (A") (A') (A') (A') (A')
                 (A') (A") (A') (A') (A") (A")
       Virtual   (A') (A') (A") (A') (A') (A') (A") (A') (A') (A")
                 (A') (A') (A') (A") (A') (A') (A") (A") (A') (A')
                 (A") (A') (A') (A') (A") (A') (A") (A') (A") (A')
                 (A') (A') (A') (A") (A') (A") (A") (A") (A') (A')
                 (A") (A") (A') (A') (A') (A') (A") (A') (A") (A')
                 (A") (A') (A") (A') (A')
 The electronic state of the initial guess is 1-A'.
 Generating alternative initial guess.
 ExpMin= 7.80D-02 ExpMax= 6.90D+03 ExpMxC= 1.04D+03 IAcc=3 IRadAn=         5 AccDes= 0.00D+00
 Harris functional with IExCor=  402 and IRadAn=       5 diagonalized for initial guess.
 HarFok:  IExCor=  402 AccDes= 0.00D+00 IRadAn=         5 IDoV= 1 UseB2=F ITyADJ=14
 ICtDFT=  3500011 ScaDFX=  1.000000  1.000000  1.000000  1.000000
 FoFCou: FMM=F IPFlag=           0 FMFlag=      100000 FMFlg1=           0
         NFxFlg=           0 DoJE=T BraDBF=F KetDBF=T FulRan=T
         wScrn=  0.000000 ICntrl=       500 IOpCl=  0 I1Cent=   200000004 NGrid=           0
         NMat0=    1 NMatS0=      1 NMatT0=    0 NMatD0=    1 NMtDS0=    0 NMtDT0=    0
 Petite list used in FoFCou.
 Harris En= -392.438884873362    
 Leave Link  401 at Wed Jun 24 00:57:40 2026, MaxMem=  1879048192 cpu:               0.6 elap:               0.1
 (Enter /CH/g16/l502.exe)
 Keep R1 ints in memory in symmetry-blocked form, NReq=10456469.
 FoFCou: FMM=F IPFlag=           0 FMFlag=           0 FMFlg1=           0
         NFxFlg=           0 DoJE=F BraDBF=F KetDBF=F FulRan=T
         wScrn=  0.000000 ICntrl=       600 IOpCl=  0 I1Cent=           0 NGrid=           0
         NMat0=    1 NMatS0=   2556 NMatT0=    0 NMatD0=    1 NMtDS0=    0 NMtDT0=    0
 Petite list used in FoFCou.
 Closed shell SCF:
 Using DIIS extrapolation, IDIIS=  1040.
 NGot=  1879048192 LenX=  1877372339 LenY=  1877366422
 Requested convergence on RMS density matrix=1.00D-08 within 128 cycles.
 Requested convergence on MAX density matrix=1.00D-06.
 Requested convergence on             energy=1.00D-06.
 No special actions if energy rises.

 Cycle   1  Pass 1  IDiag  1:
 Inv3:  Mode=1 IEnd=     2131947.
 Iteration    1 A*A^-1 deviation from unit magnitude is 2.66D-15 for     90.
 Iteration    1 A*A^-1 deviation from orthogonality  is 1.85D-15 for    253     80.
 Iteration    1 A^-1*A deviation from unit magnitude is 2.66D-15 for    112.
 Iteration    1 A^-1*A deviation from orthogonality  is 2.22D-15 for    679     30.
 E= -392.460967691181    
 DIIS: error= 5.22D-03 at cycle   1 NSaved=   1.
 NSaved= 1 IEnMin= 1 EnMin= -392.460967691181     IErMin= 1 ErrMin= 5.22D-03
 ErrMax= 5.22D-03  0.00D+00 EMaxC= 1.00D-01 BMatC= 4.42D-03 BMatP= 4.42D-03
 IDIUse=3 WtCom= 9.48D-01 WtEn= 5.22D-02
 Coeff-Com:  0.100D+01
 Coeff-En:   0.100D+01
 Coeff:      0.100D+01
 Gap=     0.236 Goal=   None    Shift=    0.000
 GapD=    0.236 DampG=1.000 DampE=1.000 DampFc=1.0000 IDamp=-1.
 RMSDP=1.24D-03 MaxDP=1.27D-02              OVMax= 2.27D-02

 Cycle   2  Pass 1  IDiag  1:
 E= -392.463954425649     Delta-E=       -0.002986734468 Rises=F Damp=F
 DIIS: error= 2.31D-03 at cycle   2 NSaved=   2.
 NSaved= 2 IEnMin= 2 EnMin= -392.463954425649     IErMin= 2 ErrMin= 2.31D-03
 ErrMax= 2.31D-03  0.00D+00 EMaxC= 1.00D-01 BMatC= 3.58D-04 BMatP= 4.42D-03
 IDIUse=3 WtCom= 9.77D-01 WtEn= 2.31D-02
 Coeff-Com:  0.128D+00 0.872D+00
 Coeff-En:   0.000D+00 0.100D+01
 Coeff:      0.125D+00 0.875D+00
 Gap=     0.238 Goal=   None    Shift=    0.000
 RMSDP=4.20D-04 MaxDP=9.10D-03 DE=-2.99D-03 OVMax= 8.37D-03

 Cycle   3  Pass 1  IDiag  1:
 E= -392.464056508473     Delta-E=       -0.000102082824 Rises=F Damp=F
 DIIS: error= 1.96D-03 at cycle   3 NSaved=   3.
 NSaved= 3 IEnMin= 3 EnMin= -392.464056508473     IErMin= 3 ErrMin= 1.96D-03
 ErrMax= 1.96D-03  0.00D+00 EMaxC= 1.00D-01 BMatC= 2.54D-04 BMatP= 3.58D-04
 IDIUse=3 WtCom= 9.80D-01 WtEn= 1.96D-02
 Coeff-Com:  0.136D-01 0.454D+00 0.533D+00
 Coeff-En:   0.000D+00 0.398D+00 0.602D+00
 Coeff:      0.133D-01 0.453D+00 0.534D+00
 Gap=     0.235 Goal=   None    Shift=    0.000
 RMSDP=2.18D-04 MaxDP=3.75D-03 DE=-1.02D-04 OVMax= 5.55D-03

 Cycle   4  Pass 1  IDiag  1:
 E= -392.464246653406     Delta-E=       -0.000190144933 Rises=F Damp=F
 DIIS: error= 8.32D-04 at cycle   4 NSaved=   4.
 NSaved= 4 IEnMin= 4 EnMin= -392.464246653406     IErMin= 4 ErrMin= 8.32D-04
 ErrMax= 8.32D-04  0.00D+00 EMaxC= 1.00D-01 BMatC= 3.42D-05 BMatP= 2.54D-04
 IDIUse=3 WtCom= 9.92D-01 WtEn= 8.32D-03
 Coeff-Com: -0.369D-02 0.176D+00 0.319D+00 0.509D+00
 Coeff-En:   0.000D+00 0.000D+00 0.399D-01 0.960D+00
 Coeff:     -0.365D-02 0.175D+00 0.316D+00 0.513D+00
 Gap=     0.235 Goal=   None    Shift=    0.000
 RMSDP=6.51D-05 MaxDP=1.25D-03 DE=-1.90D-04 OVMax= 1.32D-03

 Cycle   5  Pass 1  IDiag  1:
 E= -392.464271936997     Delta-E=       -0.000025283591 Rises=F Damp=F
 DIIS: error= 5.68D-05 at cycle   5 NSaved=   5.
 NSaved= 5 IEnMin= 5 EnMin= -392.464271936997     IErMin= 5 ErrMin= 5.68D-05
 ErrMax= 5.68D-05  0.00D+00 EMaxC= 1.00D-01 BMatC= 3.43D-07 BMatP= 3.42D-05
 IDIUse=1 WtCom= 1.00D+00 WtEn= 0.00D+00
 Coeff-Com: -0.163D-02 0.269D-01 0.738D-01 0.161D+00 0.740D+00
 Coeff:     -0.163D-02 0.269D-01 0.738D-01 0.161D+00 0.740D+00
 Gap=     0.235 Goal=   None    Shift=    0.000
 RMSDP=1.10D-05 MaxDP=2.91D-04 DE=-2.53D-05 OVMax= 1.62D-04

 Cycle   6  Pass 1  IDiag  1:
 E= -392.464272335344     Delta-E=       -0.000000398347 Rises=F Damp=F
 DIIS: error= 5.41D-06 at cycle   6 NSaved=   6.
 NSaved= 6 IEnMin= 6 EnMin= -392.464272335344     IErMin= 6 ErrMin= 5.41D-06
 ErrMax= 5.41D-06  0.00D+00 EMaxC= 1.00D-01 BMatC= 2.37D-09 BMatP= 3.43D-07
 IDIUse=1 WtCom= 1.00D+00 WtEn= 0.00D+00
 Coeff-Com:  0.372D-05-0.421D-02-0.421D-02-0.532D-02 0.546D-01 0.959D+00
 Coeff:      0.372D-05-0.421D-02-0.421D-02-0.532D-02 0.546D-01 0.959D+00
 Gap=     0.235 Goal=   None    Shift=    0.000
 RMSDP=1.06D-06 MaxDP=2.17D-05 DE=-3.98D-07 OVMax= 2.53D-05

 Cycle   7  Pass 1  IDiag  1:
 E= -392.464272338070     Delta-E=       -0.000000002726 Rises=F Damp=F
 DIIS: error= 5.91D-07 at cycle   7 NSaved=   7.
 NSaved= 7 IEnMin= 7 EnMin= -392.464272338070     IErMin= 7 ErrMin= 5.91D-07
 ErrMax= 5.91D-07  0.00D+00 EMaxC= 1.00D-01 BMatC= 4.16D-11 BMatP= 2.37D-09
 IDIUse=1 WtCom= 1.00D+00 WtEn= 0.00D+00
 Coeff-Com:  0.170D-04-0.102D-02-0.139D-02-0.278D-02-0.193D-03 0.172D+00
 Coeff-Com:  0.833D+00
 Coeff:      0.170D-04-0.102D-02-0.139D-02-0.278D-02-0.193D-03 0.172D+00
 Coeff:      0.833D+00
 Gap=     0.235 Goal=   None    Shift=    0.000
 RMSDP=1.50D-07 MaxDP=3.72D-06 DE=-2.73D-09 OVMax= 3.16D-06

 Cycle   8  Pass 1  IDiag  1:
 E= -392.464272338131     Delta-E=       -0.000000000061 Rises=F Damp=F
 DIIS: error= 1.03D-07 at cycle   8 NSaved=   8.
 NSaved= 8 IEnMin= 8 EnMin= -392.464272338131     IErMin= 8 ErrMin= 1.03D-07
 ErrMax= 1.03D-07  0.00D+00 EMaxC= 1.00D-01 BMatC= 1.17D-12 BMatP= 4.16D-11
 IDIUse=1 WtCom= 1.00D+00 WtEn= 0.00D+00
 Coeff-Com:  0.188D-05-0.181D-05-0.256D-04-0.222D-03-0.177D-02-0.748D-02
 Coeff-Com:  0.729D-01 0.937D+00
 Coeff:      0.188D-05-0.181D-05-0.256D-04-0.222D-03-0.177D-02-0.748D-02
 Coeff:      0.729D-01 0.937D+00
 Gap=     0.235 Goal=   None    Shift=    0.000
 RMSDP=2.63D-08 MaxDP=6.83D-07 DE=-6.07D-11 OVMax= 4.30D-07

 Cycle   9  Pass 1  IDiag  1:
 E= -392.464272338132     Delta-E=       -0.000000000000 Rises=F Damp=F
 DIIS: error= 3.15D-08 at cycle   9 NSaved=   9.
 NSaved= 9 IEnMin= 9 EnMin= -392.464272338132     IErMin= 9 ErrMin= 3.15D-08
 ErrMax= 3.15D-08  0.00D+00 EMaxC= 1.00D-01 BMatC= 9.31D-14 BMatP= 1.17D-12
 IDIUse=1 WtCom= 1.00D+00 WtEn= 0.00D+00
 Coeff-Com: -0.136D-06 0.379D-04 0.506D-04 0.430D-04-0.446D-03-0.800D-02
 Coeff-Com: -0.734D-02 0.287D+00 0.729D+00
 Coeff:     -0.136D-06 0.379D-04 0.506D-04 0.430D-04-0.446D-03-0.800D-02
 Coeff:     -0.734D-02 0.287D+00 0.729D+00
 Gap=     0.235 Goal=   None    Shift=    0.000
 RMSDP=7.01D-09 MaxDP=1.88D-07 DE=-3.41D-13 OVMax= 1.11D-07

 Error on total polarization charges =  0.02771
 SCF Done:  E(RB3LYP) =  -392.464272338     A.U. after    9 cycles
            NFock=  9  Conv=0.70D-08     -V/T= 2.0047
 KE= 3.906286671608D+02 PE=-1.134257170321D+03 EE= 2.487168741103D+02
 SMD-CDS (non-electrostatic) energy       (kcal/mol) =       0.46
 (included in total energy above)
 Leave Link  502 at Wed Jun 24 00:57:41 2026, MaxMem=  1879048192 cpu:               6.3 elap:               1.0
 (Enter /CH/g16/l701.exe)
 ... and contract with generalized density number  0.
 Compute integral first derivatives.
 R6Disp: Adding Grimme-D3(BJ) dispersion energy 1st derivatives to the gradient.
   2 Symmetry operations used in ECPInt.
 ECPInt:  NShTT=     630 NPrTT=    2342 LenC2=     630 LenP2D=    2038.
 LDataN:  DoStor=T MaxTD1= 5 Len=  102
 D1PCM: PCM CHGder 1st derivatives, ID1Alg=3 FixD1E=F DoIter=F DoCFld=F I1PDM=0.
 GePol: Maximum number of non-zero 1st derivatives   =     436
 Leave Link  701 at Wed Jun 24 00:57:41 2026, MaxMem=  1879048192 cpu:               1.5 elap:               0.2
 (Enter /CH/g16/l702.exe)
 L702 exits ... SP integral derivatives will be done elsewhere.
 Leave Link  702 at Wed Jun 24 00:57:41 2026, MaxMem=  1879048192 cpu:               0.0 elap:               0.0
 (Enter /CH/g16/l703.exe)
 Integral derivatives from FoFJK, PRISM(SPDF).
 Compute integral first derivatives, UseDBF=F ICtDFT=           0.
 Calling FoFJK, ICntrl=      2127 FMM=F ISym2X=1 I1Cent= 0 IOpClX= 0 NMat=1 NMatS=1 NMatT=0.
 FoFJK:  IHMeth= 1 ICntrl=    2127 DoSepK=F KAlg= 0 I1Cent=           0 FoldK=F
 IRaf=         0 NMat=       1 IRICut=       1 DoRegI=T DoRafI=F ISym2E= 1 IDoP0=0 IntGTp=1.
 FoFCou: FMM=F IPFlag=           0 FMFlag=      100000 FMFlg1=         800
         NFxFlg=           0 DoJE=F BraDBF=F KetDBF=F FulRan=T
         wScrn=  0.000000 ICntrl=      2127 IOpCl=  0 I1Cent=           0 NGrid=           0
         NMat0=    1 NMatS0=      1 NMatT0=    0 NMatD0=    1 NMtDS0=    0 NMtDT0=    0
 Petite list used in FoFCou.
 Leave Link  703 at Wed Jun 24 00:57:41 2026, MaxMem=  1879048192 cpu:               1.0 elap:               0.2
 (Enter /CH/g16/l716.exe)
 Dipole        = 2.45970101D-01-2.69853550D-01-2.44748032D-32
 ***** Axes restored to original set *****
 -------------------------------------------------------------------
 Center     Atomic                   Forces (Hartrees/Bohr)
 Number     Number              X              Y              Z
 -------------------------------------------------------------------
      1        5           0.006143358   -0.000000000   -0.010612646
      2        8          -0.111840556    0.000000000   -0.003709967
      3       14           0.066886438    0.000000000    0.011799366
      4        1           0.014485434    0.005304694    0.013019780
      5        1           0.014485434   -0.005304694    0.013019780
      6        1           0.007200224    0.011674696   -0.004586047
      7        1           0.007200224   -0.011674696   -0.004586047
      8        1          -0.004560555   -0.000000000   -0.014344220
 -------------------------------------------------------------------
 Cartesian Forces:  Max     0.111840556 RMS     0.027947369
 Leave Link  716 at Wed Jun 24 00:57:41 2026, MaxMem=  1879048192 cpu:               0.0 elap:               0.0
 (Enter /CH/g16/l103.exe)

 GradGradGradGradGradGradGradGradGradGradGradGradGradGradGradGradGradGrad
 Berny optimization.
 Using GEDIIS/GDIIS optimizer.
 FormGI is forming the generalized inverse of G from B-inverse, IUseBI=4.
 Internal  Forces:  Max     0.074882989 RMS     0.021257236
 Search for a local minimum.
 Step number   2 out of a maximum of   33
 All quantities printed in internal units (Hartrees-Bohrs-Radians)
 RMS Force = .21257D-01 SwitMx=.10000D-02 MixMth= 1
 Mixed Optimization -- RFO/linear search
 Update second derivatives using D2CorX and points    1    2
 DE= -3.99D-02 DEPred=-3.94D-02 R= 1.01D+00
 TightC=F SS=  1.41D+00  RLast= 3.12D-01 DXNew= 5.0454D-01 9.3668D-01
 Trust test= 1.01D+00 RLast= 3.12D-01 DXMaxT set to 5.05D-01
 ITU=  1  0
 Use linear search instead of GDIIS.
     Eigenvalues ---    0.00875   0.01573   0.05506   0.11005   0.12016
     Eigenvalues ---    0.14847   0.15943   0.16000   0.16000   0.17260
     Eigenvalues ---    0.20061   0.20802   0.21534   0.21591   0.22307
     Eigenvalues ---    0.24720   0.36294   0.69330
 RFO step:  Lambda=-1.53816286D-02 EMin= 8.75251785D-03
 Quartic linear search produced a step of  1.41322.
 Iteration  1 RMS(Cart)=  0.11062445 RMS(Int)=  0.05910974
 Iteration  2 RMS(Cart)=  0.04033251 RMS(Int)=  0.01877858
 Iteration  3 RMS(Cart)=  0.00318038 RMS(Int)=  0.01850578
 Iteration  4 RMS(Cart)=  0.00004222 RMS(Int)=  0.01850572
 Iteration  5 RMS(Cart)=  0.00000122 RMS(Int)=  0.01850572
 Iteration  6 RMS(Cart)=  0.00000004 RMS(Int)=  0.01850572
 ITry= 1 IFail=0 DXMaxC= 3.18D-01 DCOld= 1.00D+10 DXMaxT= 5.05D-01 DXLimC= 3.00D+00 Rises=F
 ClnCor:  largest displacement from symmetrization is 8.89D-03 for atom     5.
 Variable       Old X    -DE/DX   Delta X   Delta X   Delta X     New X
                                 (Linear)    (Quad)   (Total)
    R1        2.65012  -0.03833  -0.12449  -0.03030  -0.15479   2.49533
    R2        2.32797  -0.00726  -0.03762  -0.00818  -0.04759   2.28038
    R3        2.32797  -0.00726  -0.03762  -0.00818  -0.04759   2.28038
    R4        2.98512   0.07488   0.18117  -0.03868   0.14248   3.12760
    R5        2.77503   0.01032   0.08869  -0.03704   0.05188   2.82691
    R6        2.77503   0.01032   0.08869  -0.03704   0.05188   2.82691
    R7        2.73752   0.01377   0.09193  -0.01124   0.08068   2.81821
    A1        2.21361  -0.01316  -0.06950  -0.03555  -0.13741   2.07620
    A2        2.21361  -0.01384  -0.06950  -0.03475  -0.13741   2.07620
    A3        1.84307   0.02799   0.15391   0.12883   0.24642   2.08950
    A4        2.34314   0.01521   0.04982   0.05403   0.10384   2.44698
    A5        1.81336   0.01597   0.13757  -0.01829   0.10813   1.92148
    A6        1.81336   0.01597   0.13757  -0.01829   0.10813   1.92148
    A7        2.09513  -0.02255  -0.13985  -0.07397  -0.21508   1.88005
    A8        1.77134   0.00852   0.03517   0.10667   0.12291   1.89425
    A9        1.96765  -0.00548  -0.05747   0.01476  -0.04427   1.92338
   A10        1.96765  -0.00548  -0.05747   0.01476  -0.04427   1.92338
    D1       -1.47226  -0.00517  -0.05862  -0.22831  -0.25122  -1.72349
    D2        1.47226   0.00517   0.05862   0.22831   0.25122   1.72349
    D3        2.97816   0.00555   0.07624   0.36693   0.47118  -2.83384
    D4        2.21813  -0.00983  -0.05291  -0.05166  -0.12039   2.09774
    D5       -2.21813   0.00983   0.05291   0.05166   0.12039  -2.09774
    D6        0.00000  -0.00000   0.00000  -0.00000   0.00000   0.00000
         Item               Value     Threshold  Converged?
 Maximum Force            0.074883     0.000450     NO 
 RMS     Force            0.021257     0.000300     NO 
 Maximum Displacement     0.317796     0.001800     NO 
 RMS     Displacement     0.134367     0.001200     NO 
 Predicted change in Energy=-2.133911D-02
 Lowest energy point so far.  Saving SCF results.
 GradGradGradGradGradGradGradGradGradGradGradGradGradGradGradGradGradGrad

 Leave Link  103 at Wed Jun 24 00:57:41 2026, MaxMem=  1879048192 cpu:               0.0 elap:               0.0
 (Enter /CH/g16/l202.exe)
                          Input orientation:                          
 ---------------------------------------------------------------------
 Center     Atomic      Atomic             Coordinates (Angstroms)
 Number     Number       Type             X           Y           Z
 ---------------------------------------------------------------------
      1          5           0       -0.057380    0.000000   -0.201315
      2          8           0        1.139345    0.000000    0.356807
      3         14           0        2.739527   -0.000000   -0.065841
      4          1           0       -0.654755    1.043572   -0.302713
      5          1           0       -0.654755   -1.043572   -0.302713
      6          1           0        3.416828    1.214313    0.486008
      7          1           0        3.416828   -1.214313    0.486008
      8          1           0        2.815591    0.000000   -1.555232
 ---------------------------------------------------------------------
                    Distance matrix (angstroms):
                    1          2          3          4          5
     1  B    0.000000
     2  O    1.320474   0.000000
     3  Si   2.800187   1.655057   0.000000
     4  H    1.206723   2.177798   3.558975   0.000000
     5  H    1.206723   2.177798   3.558975   2.087144   0.000000
     6  H    3.743941   2.584217   1.495938   4.150786   4.722067
     7  H    3.743941   2.584217   1.495938   4.722067   4.150786
     8  H    3.176012   2.542772   1.491332   3.834208   3.834208
                    6          7          8
     6  H    0.000000
     7  H    2.428625   0.000000
     8  H    2.450041   2.450041   0.000000
 Stoichiometry    BH5OSi
 Framework group  CS[SG(BHOSi),X(H4)]
 Deg. of freedom    11
 Full point group                 CS      NOp   2
 RotChk:  IX=0 Diff= 3.23D-01
 Largest Abelian subgroup         CS      NOp   2
 Largest concise Abelian subgroup CS      NOp   2
                         Standard orientation:                         
 ---------------------------------------------------------------------
 Center     Atomic      Atomic             Coordinates (Angstroms)
 Number     Number       Type             X           Y           Z
 ---------------------------------------------------------------------
      1          5           0        1.101142    1.427416   -0.000000
      2          8           0       -0.000000    0.698623   -0.000000
      3         14           0       -0.475677   -0.886604    0.000000
      4          1           0        1.499711    1.883793    1.043572
      5          1           0        1.499711    1.883793   -1.043572
      6          1           0       -1.300086   -1.175783    1.214313
      7          1           0       -1.300086   -1.175783   -1.214313
      8          1           0        0.754520   -1.729625    0.000000
 ---------------------------------------------------------------------
 Rotational constants (GHZ):          46.5103532           5.4462204           5.4152146
 Leave Link  202 at Wed Jun 24 00:57:41 2026, MaxMem=  1879048192 cpu:               0.0 elap:               0.0
 (Enter /CH/g16/l301.exe)
 Standard basis: def2SVP (5D, 7F)
 Ernie: Thresh=  0.10000D-02 Tol=  0.10000D-05 Strict=F.
 There are    50 symmetry adapted cartesian basis functions of A'  symmetry.
 There are    24 symmetry adapted cartesian basis functions of A"  symmetry.
 There are    47 symmetry adapted basis functions of A'  symmetry.
 There are    24 symmetry adapted basis functions of A"  symmetry.
    71 basis functions,   122 primitive gaussians,    74 cartesian basis functions
    16 alpha electrons       16 beta electrons
       nuclear repulsion energy       101.2237142211 Hartrees.
 IExCor=  402 DFT=T Ex+Corr=B3LYP ExCW=0 ScaHFX=  0.200000
 ScaDFX=  0.800000  0.720000  1.000000  0.810000 ScalE2=  1.000000  1.000000
 IRadAn=      5 IRanWt=     -1 IRanGd=            0 ICorTp=0 IEmpDi=141
 NAtoms=    8 NActive=    8 NUniq=    6 SFac= 1.78D+00 NAtFMM=   60 NAOKFM=F Big=F
 Integral buffers will be    131072 words long.
 Raffenetti 2 integral format.
 Two-electron integral symmetry is turned on.
 R6Disp:  Grimme-D3(BJ) Dispersion energy=       -0.0075949147 Hartrees.
 Nuclear repulsion after empirical dispersion term =      101.2161193065 Hartrees.
 ------------------------------------------------------------------------------
 Polarizable Continuum Model (PCM)
 =================================
 Model                : PCM.
 Atomic radii         : SMD-Coulomb.
 Polarization charges : Total charges.
 Charge compensation  : None.
 Solution method      : On-the-fly selection.
 Cavity type          : VdW (van der Waals Surface) (Alpha=1.000).
 Cavity algorithm     : GePol (No added spheres)
                        Default sphere list used, NSphG=    8.
                        Lebedev-Laikov grids with approx.  5.0 points / Ang**2.
                        Smoothing algorithm: York/Karplus (Gamma=1.0000).
                        Polarization charges: spherical gaussians, with
                                              point-specific exponents (IZeta= 3).
                        Self-potential: point-specific (ISelfS= 7).
                        Self-field    : sphere-specific E.n sum rule (ISelfD= 2).
 1st derivatives      : Analytical E(r).r(x)/FMM algorithm (CHGder, D1EAlg=3).
                        Cavity 1st derivative terms included.
 Solvent              : TetraHydroFuran, Eps=   7.425700 Eps(inf)=   1.974025
 ------------------------------------------------------------------------------
 Spheres list:
 ISph  on   Nord     Re0    Alpha      Xe            Ye            Ze
    1   B      1    1.8000  1.000      1.101142      1.427416     -0.000000
    2   O      2    2.2940  1.000     -0.000000      0.698623     -0.000000
    3  Si      3    2.4700  1.000     -0.475677     -0.886604      0.000000
    4   H      4    1.2000  1.000      1.499711      1.883793      1.043572
    5   H      5    1.2000  1.000      1.499711      1.883793     -1.043572
    6   H      6    1.2000  1.000     -1.300086     -1.175783      1.214313
    7   H      7    1.2000  1.000     -1.300086     -1.175783     -1.214313
    8   H      8    1.2000  1.000      0.754520     -1.729625      0.000000
 ------------------------------------------------------------------------------
 GePol: Number of generator spheres                  =       8
 GePol: Total number of spheres                      =       8
 GePol: Number of exposed spheres                    =       8 (100.00%)
 GePol: Number of points                             =     836
 GePol: Average weight of points                     =       0.13
 GePol: Minimum weight of points                     =   0.37D-05
 GePol: Maximum weight of points                     =    0.19536
 GePol: Number of points with low weight             =      26
 GePol: Fraction of low-weight points (<1% of avg)   =       3.11%
 GePol: Cavity surface area                          =    109.638 Ang**2
 GePol: Cavity volume                                =     96.596 Ang**3
 ------------------------------------------------------------------------------
 Atomic radii for non-electrostatic terms: SMD-CDS.
 ------------------------------------------------------------------------------
 PCM non-electrostatic energy =         0.0007877986 Hartrees.
 Nuclear repulsion after PCM non-electrostatic terms =      101.2169071051 Hartrees.
 Leave Link  301 at Wed Jun 24 00:57:41 2026, MaxMem=  1879048192 cpu:               0.0 elap:               0.0
 (Enter /CH/g16/l302.exe)
 NPDir=0 NMtPBC=     1 NCelOv=     1 NCel=       1 NClECP=     1 NCelD=      1
         NCelK=      1 NCelE2=     1 NClLst=     1 CellRange=     0.0.
 One-electron integrals computed using PRISM.
 One-electron integral symmetry used in STVInt
   2 Symmetry operations used in ECPInt.
 ECPInt:  NShTT=     630 NPrTT=    2342 LenC2=     630 LenP2D=    2041.
 LDataN:  DoStor=T MaxTD1= 4 Len=   56
 NBasis=    71 RedAO= T EigKep=  1.23D-02  NBF=    47    24
 NBsUse=    71 1.00D-06 EigRej= -1.00D+00 NBFU=    47    24
 Precomputing XC quadrature grid using
 IXCGrd= 4 IRadAn=           5 IRanWt=          -1 IRanGd=           0 AccXCQ= 0.00D+00.
 Generated NRdTot=       0 NPtTot=           0 NUsed=           0 NTot=          32
 NSgBfM=    74    74    74    74    74 MxSgAt=     8 MxSgA2=     8.
 Leave Link  302 at Wed Jun 24 00:57:42 2026, MaxMem=  1879048192 cpu:               0.3 elap:               0.1
 (Enter /CH/g16/l303.exe)
 DipDrv:  MaxL=1.
 Leave Link  303 at Wed Jun 24 00:57:42 2026, MaxMem=  1879048192 cpu:               0.0 elap:               0.0
 (Enter /CH/g16/l401.exe)
 Initial guess from the checkpoint file:  "BSiOx.chk"
 B after Tr=    -0.000000    0.000000    0.000000
         Rot=    0.996360   -0.000000   -0.000000   -0.085246 Ang=  -9.78 deg.
 Guess basis will be translated and rotated to current coordinates.
 JPrj=2 DoOrth=T DoCkMO=T.
 Initial guess orbital symmetries:
       Occupied  (A') (A') (A') (A') (A') (A") (A') (A') (A') (A')
                 (A') (A") (A') (A') (A") (A")
       Virtual   (A') (A') (A") (A') (A') (A') (A') (A") (A') (A")
                 (A') (A') (A') (A") (A') (A") (A') (A') (A") (A')
                 (A') (A") (A') (A') (A") (A') (A") (A') (A') (A")
                 (A') (A') (A') (A") (A") (A') (A") (A") (A') (A')
                 (A") (A') (A") (A') (A') (A") (A') (A') (A") (A')
                 (A") (A') (A") (A') (A')
 The electronic state of the initial guess is 1-A'.
 Generating alternative initial guess.
 ExpMin= 7.80D-02 ExpMax= 6.90D+03 ExpMxC= 1.04D+03 IAcc=3 IRadAn=         5 AccDes= 0.00D+00
 Harris functional with IExCor=  402 and IRadAn=       5 diagonalized for initial guess.
 HarFok:  IExCor=  402 AccDes= 0.00D+00 IRadAn=         5 IDoV= 1 UseB2=F ITyADJ=14
 ICtDFT=  3500011 ScaDFX=  1.000000  1.000000  1.000000  1.000000
 FoFCou: FMM=F IPFlag=           0 FMFlag=      100000 FMFlg1=           0
         NFxFlg=           0 DoJE=T BraDBF=F KetDBF=T FulRan=T
         wScrn=  0.000000 ICntrl=       500 IOpCl=  0 I1Cent=   200000004 NGrid=           0
         NMat0=    1 NMatS0=      1 NMatT0=    0 NMatD0=    1 NMtDS0=    0 NMtDT0=    0
 Petite list used in FoFCou.
 Harris En= -392.460122471546    
 Leave Link  401 at Wed Jun 24 00:57:42 2026, MaxMem=  1879048192 cpu:               0.7 elap:               0.1
 (Enter /CH/g16/l502.exe)
 Keep R1 ints in memory in symmetry-blocked form, NReq=10456469.
 FoFCou: FMM=F IPFlag=           0 FMFlag=           0 FMFlg1=           0
         NFxFlg=           0 DoJE=F BraDBF=F KetDBF=F FulRan=T
         wScrn=  0.000000 ICntrl=       600 IOpCl=  0 I1Cent=           0 NGrid=           0
         NMat0=    1 NMatS0=   2556 NMatT0=    0 NMatD0=    1 NMtDS0=    0 NMtDT0=    0
 Petite list used in FoFCou.
 Closed shell SCF:
 Using DIIS extrapolation, IDIIS=  1040.
 NGot=  1879048192 LenX=  1877372339 LenY=  1877366422
 Requested convergence on RMS density matrix=1.00D-08 within 128 cycles.
 Requested convergence on MAX density matrix=1.00D-06.
 Requested convergence on             energy=1.00D-06.
 No special actions if energy rises.

 Cycle   1  Pass 1  IDiag  1:
 Inv3:  Mode=1 IEnd=     2096688.
 Iteration    1 A*A^-1 deviation from unit magnitude is 2.89D-15 for    377.
 Iteration    1 A*A^-1 deviation from orthogonality  is 1.08D-15 for    766     10.
 Iteration    1 A^-1*A deviation from unit magnitude is 3.11D-15 for    377.
 Iteration    1 A^-1*A deviation from orthogonality  is 1.39D-15 for    531    450.
 E= -392.472131526713    
 DIIS: error= 7.50D-03 at cycle   1 NSaved=   1.
 NSaved= 1 IEnMin= 1 EnMin= -392.472131526713     IErMin= 1 ErrMin= 7.50D-03
 ErrMax= 7.50D-03  0.00D+00 EMaxC= 1.00D-01 BMatC= 9.63D-03 BMatP= 9.63D-03
 IDIUse=3 WtCom= 9.25D-01 WtEn= 7.50D-02
 Coeff-Com:  0.100D+01
 Coeff-En:   0.100D+01
 Coeff:      0.100D+01
 Gap=     0.365 Goal=   None    Shift=    0.000
 GapD=    0.365 DampG=1.000 DampE=1.000 DampFc=1.0000 IDamp=-1.
 RMSDP=2.26D-03 MaxDP=2.64D-02              OVMax= 4.40D-02

 Cycle   2  Pass 1  IDiag  1:
 E= -392.482327893594     Delta-E=       -0.010196366881 Rises=F Damp=F
 DIIS: error= 3.72D-03 at cycle   2 NSaved=   2.
 NSaved= 2 IEnMin= 2 EnMin= -392.482327893594     IErMin= 2 ErrMin= 3.72D-03
 ErrMax= 3.72D-03  0.00D+00 EMaxC= 1.00D-01 BMatC= 1.06D-03 BMatP= 9.63D-03
 IDIUse=3 WtCom= 9.63D-01 WtEn= 3.72D-02
 Coeff-Com:  0.142D+00 0.858D+00
 Coeff-En:   0.000D+00 0.100D+01
 Coeff:      0.137D+00 0.863D+00
 Gap=     0.253 Goal=   None    Shift=    0.000
 RMSDP=7.02D-04 MaxDP=1.58D-02 DE=-1.02D-02 OVMax= 1.56D-02

 Cycle   3  Pass 1  IDiag  1:
 E= -392.482575402849     Delta-E=       -0.000247509255 Rises=F Damp=F
 DIIS: error= 3.59D-03 at cycle   3 NSaved=   3.
 NSaved= 3 IEnMin= 3 EnMin= -392.482575402849     IErMin= 3 ErrMin= 3.59D-03
 ErrMax= 3.59D-03  0.00D+00 EMaxC= 1.00D-01 BMatC= 8.53D-04 BMatP= 1.06D-03
 IDIUse=3 WtCom= 9.64D-01 WtEn= 3.59D-02
 Coeff-Com:  0.725D-02 0.469D+00 0.523D+00
 Coeff-En:   0.000D+00 0.421D+00 0.579D+00
 Coeff:      0.699D-02 0.468D+00 0.525D+00
 Gap=     0.248 Goal=   None    Shift=    0.000
 RMSDP=3.97D-04 MaxDP=7.24D-03 DE=-2.48D-04 OVMax= 9.98D-03

 Cycle   4  Pass 1  IDiag  1:
 E= -392.483202392293     Delta-E=       -0.000626989444 Rises=F Damp=F
 DIIS: error= 1.24D-03 at cycle   4 NSaved=   4.
 NSaved= 4 IEnMin= 4 EnMin= -392.483202392293     IErMin= 4 ErrMin= 1.24D-03
 ErrMax= 1.24D-03  0.00D+00 EMaxC= 1.00D-01 BMatC= 9.29D-05 BMatP= 8.53D-04
 IDIUse=3 WtCom= 9.88D-01 WtEn= 1.24D-02
 Coeff-Com: -0.873D-02 0.170D+00 0.303D+00 0.535D+00
 Coeff-En:   0.000D+00 0.000D+00 0.213D-01 0.979D+00
 Coeff:     -0.862D-02 0.168D+00 0.299D+00 0.541D+00
 Gap=     0.249 Goal=   None    Shift=    0.000
 RMSDP=1.18D-04 MaxDP=2.10D-03 DE=-6.27D-04 OVMax= 2.21D-03

 Cycle   5  Pass 1  IDiag  1:
 E= -392.483272664084     Delta-E=       -0.000070271791 Rises=F Damp=F
 DIIS: error= 1.13D-04 at cycle   5 NSaved=   5.
 NSaved= 5 IEnMin= 5 EnMin= -392.483272664084     IErMin= 5 ErrMin= 1.13D-04
 ErrMax= 1.13D-04  0.00D+00 EMaxC= 1.00D-01 BMatC= 1.11D-06 BMatP= 9.29D-05
 IDIUse=3 WtCom= 9.99D-01 WtEn= 1.13D-03
 Coeff-Com: -0.229D-02 0.175D-01 0.590D-01 0.162D+00 0.764D+00
 Coeff-En:   0.000D+00 0.000D+00 0.000D+00 0.000D+00 0.100D+01
 Coeff:     -0.229D-02 0.175D-01 0.590D-01 0.162D+00 0.764D+00
 Gap=     0.249 Goal=   None    Shift=    0.000
 RMSDP=2.01D-05 MaxDP=5.42D-04 DE=-7.03D-05 OVMax= 4.00D-04

 Cycle   6  Pass 1  IDiag  1:
 E= -392.483274000796     Delta-E=       -0.000001336713 Rises=F Damp=F
 DIIS: error= 8.60D-06 at cycle   6 NSaved=   6.
 NSaved= 6 IEnMin= 6 EnMin= -392.483274000796     IErMin= 6 ErrMin= 8.60D-06
 ErrMax= 8.60D-06  0.00D+00 EMaxC= 1.00D-01 BMatC= 1.36D-08 BMatP= 1.11D-06
 IDIUse=1 WtCom= 1.00D+00 WtEn= 0.00D+00
 Coeff-Com:  0.489D-04-0.492D-02-0.346D-02-0.964D-03 0.976D-01 0.912D+00
 Coeff:      0.489D-04-0.492D-02-0.346D-02-0.964D-03 0.976D-01 0.912D+00
 Gap=     0.249 Goal=   None    Shift=    0.000
 RMSDP=2.51D-06 MaxDP=8.57D-05 DE=-1.34D-06 OVMax= 4.94D-05

 Cycle   7  Pass 1  IDiag  1:
 E= -392.483274017126     Delta-E=       -0.000000016330 Rises=F Damp=F
 DIIS: error= 1.90D-06 at cycle   7 NSaved=   7.
 NSaved= 7 IEnMin= 7 EnMin= -392.483274017126     IErMin= 7 ErrMin= 1.90D-06
 ErrMax= 1.90D-06  0.00D+00 EMaxC= 1.00D-01 BMatC= 4.77D-10 BMatP= 1.36D-08
 IDIUse=1 WtCom= 1.00D+00 WtEn= 0.00D+00
 Coeff-Com:  0.552D-04-0.163D-02-0.200D-02-0.404D-02 0.679D-02 0.214D+00
 Coeff-Com:  0.787D+00
 Coeff:      0.552D-04-0.163D-02-0.200D-02-0.404D-02 0.679D-02 0.214D+00
 Coeff:      0.787D+00
 Gap=     0.249 Goal=   None    Shift=    0.000
 RMSDP=5.76D-07 MaxDP=1.76D-05 DE=-1.63D-08 OVMax= 8.95D-06

 Cycle   8  Pass 1  IDiag  1:
 E= -392.483274017801     Delta-E=       -0.000000000675 Rises=F Damp=F
 DIIS: error= 4.04D-07 at cycle   8 NSaved=   8.
 NSaved= 8 IEnMin= 8 EnMin= -392.483274017801     IErMin= 8 ErrMin= 4.04D-07
 ErrMax= 4.04D-07  0.00D+00 EMaxC= 1.00D-01 BMatC= 1.43D-11 BMatP= 4.77D-10
 IDIUse=1 WtCom= 1.00D+00 WtEn= 0.00D+00
 Coeff-Com:  0.927D-05-0.134D-03-0.254D-03-0.826D-03-0.278D-02 0.440D-02
 Coeff-Com:  0.144D+00 0.856D+00
 Coeff:      0.927D-05-0.134D-03-0.254D-03-0.826D-03-0.278D-02 0.440D-02
 Coeff:      0.144D+00 0.856D+00
 Gap=     0.249 Goal=   None    Shift=    0.000
[...]
 Coeff-Com:  0.121D-03-0.273D-02-0.272D-02 0.706D-02 0.111D+00 0.887D+00
 Coeff:      0.121D-03-0.273D-02-0.272D-02 0.706D-02 0.111D+00 0.887D+00
 Gap=     0.258 Goal=   None    Shift=    0.000
 RMSDP=9.48D-09 MaxDP=2.23D-07 DE=-2.77D-11 OVMax= 2.16D-07

 Error on total polarization charges =  0.02832
 SCF Done:  E(RB3LYP) =  -392.490927325     A.U. after    6 cycles
            NFock=  6  Conv=0.95D-08     -V/T= 2.0052
 KE= 3.904627022370D+02 PE=-1.128567251488D+03 EE= 2.459511148132D+02
 SMD-CDS (non-electrostatic) energy       (kcal/mol) =       0.59
 (included in total energy above)
 Leave Link  502 at Wed Jun 24 00:58:13 2026, MaxMem=  1879048192 cpu:               5.7 elap:               0.9
 (Enter /CH/g16/l701.exe)
 ... and contract with generalized density number  0.
 Compute integral first derivatives.
 R6Disp: Adding Grimme-D3(BJ) dispersion energy 1st derivatives to the gradient.
   1 Symmetry operations used in ECPInt.
 ECPInt:  NShTT=     630 NPrTT=    2342 LenC2=     630 LenP2D=    2036.
 LDataN:  DoStor=T MaxTD1= 5 Len=  102
 D1PCM: PCM CHGder 1st derivatives, ID1Alg=3 FixD1E=F DoIter=F DoCFld=F I1PDM=0.
 GePol: Maximum number of non-zero 1st derivatives   =     431
 Leave Link  701 at Wed Jun 24 00:58:13 2026, MaxMem=  1879048192 cpu:               1.5 elap:               0.2
 (Enter /CH/g16/l702.exe)
 L702 exits ... SP integral derivatives will be done elsewhere.
 Leave Link  702 at Wed Jun 24 00:58:13 2026, MaxMem=  1879048192 cpu:               0.0 elap:               0.0
 (Enter /CH/g16/l703.exe)
 Integral derivatives from FoFJK, PRISM(SPDF).
 Compute integral first derivatives, UseDBF=F ICtDFT=           0.
 Calling FoFJK, ICntrl=      2127 FMM=F ISym2X=0 I1Cent= 0 IOpClX= 0 NMat=1 NMatS=1 NMatT=0.
 FoFJK:  IHMeth= 1 ICntrl=    2127 DoSepK=F KAlg= 0 I1Cent=           0 FoldK=F
 IRaf=         0 NMat=       1 IRICut=       1 DoRegI=T DoRafI=F ISym2E= 0 IDoP0=0 IntGTp=1.
 FoFCou: FMM=F IPFlag=           0 FMFlag=      100000 FMFlg1=         800
         NFxFlg=           0 DoJE=F BraDBF=F KetDBF=F FulRan=T
         wScrn=  0.000000 ICntrl=      2127 IOpCl=  0 I1Cent=           0 NGrid=           0
         NMat0=    1 NMatS0=      1 NMatT0=    0 NMatD0=    1 NMtDS0=    0 NMtDT0=    0
 Symmetry not used in FoFCou.
 Leave Link  703 at Wed Jun 24 00:58:13 2026, MaxMem=  1879048192 cpu:               1.4 elap:               0.2
 (Enter /CH/g16/l716.exe)
 Dipole        =-6.13832362D-01 9.08124191D-06-8.51078728D-03
 ***** Axes restored to original set *****
 -------------------------------------------------------------------
 Center     Atomic                   Forces (Hartrees/Bohr)
 Number     Number              X              Y              Z
 -------------------------------------------------------------------
      1        5          -0.000001662   -0.000000734    0.000009082
      2        8          -0.000009509   -0.000003583   -0.000011020
      3       14           0.000021522   -0.000004097   -0.000006324
      4        1          -0.000002048    0.000001814   -0.000001711
      5        1          -0.000002052   -0.000000602   -0.000001366
      6        1           0.000005291   -0.000000296    0.000003858
      7        1          -0.000000656    0.000004370    0.000004878
      8        1          -0.000010887    0.000003127    0.000002603
 -------------------------------------------------------------------
 Cartesian Forces:  Max     0.000021522 RMS     0.000006673
 Leave Link  716 at Wed Jun 24 00:58:13 2026, MaxMem=  1879048192 cpu:               0.0 elap:               0.0
 (Enter /CH/g16/l103.exe)

 GradGradGradGradGradGradGradGradGradGradGradGradGradGradGradGradGradGrad
 Berny optimization.
 Using GEDIIS/GDIIS optimizer.
 FormGI is forming the generalized inverse of G from B-inverse, IUseBI=4.
 Internal  Forces:  Max     0.000017092 RMS     0.000006486
 Search for a local minimum.
 Step number  20 out of a maximum of   33
 All quantities printed in internal units (Hartrees-Bohrs-Radians)
 RMS Force = .64860D-05 SwitMx=.10000D-02 MixMth= 2
 Mixed Optimization -- En-DIIS/RFO-DIIS
 Swapping is turned off.
 Update second derivatives using D2CorX and points   16   18   19   20
 DE= -1.17D-07 DEPred=-1.08D-07 R= 1.09D+00
 Trust test= 1.09D+00 RLast= 3.69D-03 DXMaxT set to 1.19D-01
 ITU=  0  1 -1 -1 -1  1  1  1  1  1  1  1  1  1  1  1  0  1  1  0
     Eigenvalues ---    0.01378   0.01573   0.03430   0.04581   0.09514
     Eigenvalues ---    0.10967   0.12697   0.14277   0.15767   0.16087
     Eigenvalues ---    0.16466   0.20099   0.20522   0.20939   0.21592
     Eigenvalues ---    0.22575   0.40644   0.49595
 En-DIIS/RFO-DIIS/Sim-DIIS IScMMF=       -3 using points:    20   19   18
 RFO step:  Lambda=-4.82566306D-09.
 NNeg= 0 NGDIIS= 3 SimSw=  2.50D-03 Rises=F DC= -1.17D-07 SmlDif=  1.00D-05
 NRisDI= 0 DoIntr=F SqrtH=F CThrHd= 10.0 CDAdj=  3.0
 RMS Error=  0.7521834628D-04 NUsed= 3 OKEnD=F EnDIS=F
 InvSVX:  RCond= 2.10D-07 Info=           0 Equed=N FErr=  4.60D-15 BErr=  6.70D-17
 DidBck=F Rises=F RFO-DIIS coefs:    1.21273   -0.18086   -0.03187
 Iteration  1 RMS(Cart)=  0.00010140 RMS(Int)=  0.00000002
 Iteration  2 RMS(Cart)=  0.00000002 RMS(Int)=  0.00000001
 ITry= 1 IFail=0 DXMaxC= 3.82D-04 DCOld= 1.00D+10 DXMaxT= 1.19D-01 DXLimC= 3.00D+00 Rises=F
 Variable       Old X    -DE/DX   Delta X   Delta X   Delta X     New X
                                 (Linear)    (Quad)   (Total)
    R1        2.52679   0.00001   0.00002  -0.00001   0.00001   2.52680
    R2        2.29422   0.00000  -0.00000   0.00001   0.00001   2.29423
    R3        2.29423   0.00000  -0.00000   0.00001   0.00000   2.29423
    R4        3.13865   0.00002  -0.00001   0.00005   0.00004   3.13869
    R5        2.81114   0.00000   0.00001   0.00001   0.00002   2.81115
    R6        2.81116  -0.00000  -0.00000  -0.00001  -0.00001   2.81115
    R7        2.80733  -0.00001  -0.00003  -0.00001  -0.00005   2.80729
    A1        2.08751   0.00000  -0.00003   0.00001  -0.00001   2.08750
    A2        2.08751   0.00000  -0.00001   0.00002   0.00000   2.08751
    A3        2.10816  -0.00000   0.00004  -0.00003   0.00001   2.10817
    A4        3.08389  -0.00000  -0.00026  -0.00000  -0.00026   3.08362
    A5        1.90839   0.00001   0.00002   0.00003   0.00005   1.90844
    A6        1.90841   0.00000   0.00003  -0.00003  -0.00000   1.90841
    A7        1.87896  -0.00002  -0.00008  -0.00004  -0.00013   1.87883
    A8        1.91450  -0.00001  -0.00003  -0.00005  -0.00008   1.91442
    A9        1.92661   0.00000   0.00000   0.00002   0.00003   1.92664
   A10        1.92652   0.00001   0.00006   0.00007   0.00013   1.92665
    D1        1.57171   0.00000   0.00007   0.00000   0.00007   1.57178
    D2       -1.57168  -0.00000  -0.00006   0.00003  -0.00003  -1.57170
    D3        3.13977  -0.00000  -0.00013   0.00003  -0.00010   3.13968
    D4       -1.04913   0.00000  -0.00002   0.00005   0.00003  -1.04910
    D5        1.04726  -0.00000  -0.00002  -0.00001  -0.00004   1.04723
    D6        3.14061   0.00000   0.00001   0.00003   0.00004   3.14066
         Item               Value     Threshold  Converged?
 Maximum Force            0.000017     0.000450     YES
 RMS     Force            0.000006     0.000300     YES
 Maximum Displacement     0.000382     0.001800     YES
 RMS     Displacement     0.000101     0.001200     YES
 Predicted change in Energy=-3.446928D-09
 Optimization completed.
    -- Stationary point found.
                           ----------------------------
                           !   Optimized Parameters   !
                           ! (Angstroms and Degrees)  !
 --------------------------                            --------------------------
 ! Name  Definition              Value          Derivative Info.                !
 --------------------------------------------------------------------------------
 ! R1    R(1,2)                  1.3371         -DE/DX =    0.0                 !
 ! R2    R(1,4)                  1.2141         -DE/DX =    0.0                 !
 ! R3    R(1,5)                  1.2141         -DE/DX =    0.0                 !
 ! R4    R(2,3)                  1.6609         -DE/DX =    0.0                 !
 ! R5    R(3,6)                  1.4876         -DE/DX =    0.0                 !
 ! R6    R(3,7)                  1.4876         -DE/DX =    0.0                 !
 ! R7    R(3,8)                  1.4856         -DE/DX =    0.0                 !
 ! A1    A(2,1,4)              119.6057         -DE/DX =    0.0                 !
 ! A2    A(2,1,5)              119.6055         -DE/DX =    0.0                 !
 ! A3    A(4,1,5)              120.7888         -DE/DX =    0.0                 !
 ! A4    A(1,2,3)              176.6936         -DE/DX =    0.0                 !
 ! A5    A(2,3,6)              109.3427         -DE/DX =    0.0                 !
 ! A6    A(2,3,7)              109.3438         -DE/DX =    0.0                 !
 ! A7    A(2,3,8)              107.6563         -DE/DX =    0.0                 !
 ! A8    A(6,3,7)              109.6925         -DE/DX =    0.0                 !
 ! A9    A(6,3,8)              110.3865         -DE/DX =    0.0                 !
 ! A10   A(7,3,8)              110.3816         -DE/DX =    0.0                 !
 ! D1    D(4,1,2,3)             90.0524         -DE/DX =    0.0                 !
 ! D2    D(5,1,2,3)            -90.0505         -DE/DX =    0.0                 !
 ! D3    D(2,1,4,5)            179.8958         -DE/DX =    0.0                 !
 ! D4    D(1,2,3,6)            -60.1107         -DE/DX =    0.0                 !
 ! D5    D(1,2,3,7)             60.0037         -DE/DX =    0.0                 !
 ! D6    D(1,2,3,8)            179.9439         -DE/DX =    0.0                 !
 --------------------------------------------------------------------------------
 Lowest energy point so far.  Saving SCF results.
 Largest change from initial coordinates is atom    8       2.929 Angstoms.
 GradGradGradGradGradGradGradGradGradGradGradGradGradGradGradGradGradGrad

 Leave Link  103 at Wed Jun 24 00:58:13 2026, MaxMem=  1879048192 cpu:               0.0 elap:               0.0
 (Enter /CH/g16/l202.exe)
                          Input orientation:                          
 ---------------------------------------------------------------------
 Center     Atomic      Atomic             Coordinates (Angstroms)
 Number     Number       Type             X           Y           Z
 ---------------------------------------------------------------------
      1          5           0       -0.175768    0.003239   -0.120473
      2          8           0        1.160095    0.000730   -0.178353
      3         14           0        2.820823   -0.002466   -0.154426
      4          1           0       -0.773003    1.059914   -0.094641
      5          1           0       -0.777036   -1.051188   -0.096275
      6          1           0        3.305737    1.212975    0.553022
      7          1           0        3.301082   -1.219566    0.553371
      8          1           0        3.291753   -0.003639   -1.563385
 ---------------------------------------------------------------------
                    Distance matrix (angstroms):
                    1          2          3          4          5
     1  B    0.000000
     2  O    1.337118   0.000000
     3  Si   2.996788   1.660903   0.000000
     4  H    1.214051   2.205843   3.748040   0.000000
     5  H    1.214053   2.205843   3.748037   2.111106   0.000000
     6  H    3.746722   2.570647   1.487589   4.132676   4.713497
     7  H    3.746705   2.570674   1.487601   4.713185   4.132969
     8  H    3.755760   2.542105   1.485578   4.450909   4.450259
                    6          7          8
     6  H    0.000000
     7  H    2.432545   0.000000
     8  H    2.441213   2.441151   0.000000
 Stoichiometry    BH5OSi
 Framework group  C1[X(BH5OSi)]
 Deg. of freedom    18
 Full point group                 C1      NOp   1
 RotChk:  IX=0 Diff= 4.40D-16
 Largest Abelian subgroup         C1      NOp   1
 Largest concise Abelian subgroup C1      NOp   1
                         Standard orientation:                         
 ---------------------------------------------------------------------
 Center     Atomic      Atomic             Coordinates (Angstroms)
 Number     Number       Type             X           Y           Z
 ---------------------------------------------------------------------
      1          5           0        1.933530   -0.000001   -0.013440
      2          8           0        0.597201    0.000000    0.032480
      3         14           0       -1.063249    0.000005   -0.006313
      4          1           0        2.532987    1.055550   -0.033036
      5          1           0        2.532979   -1.055556   -0.033144
      6          1           0       -1.539492    1.216955   -0.717048
      7          1           0       -1.539474   -1.215589   -0.719404
      8          1           0       -1.546774   -0.001429    1.398373
 ---------------------------------------------------------------------
 Rotational constants (GHZ):          61.1831547           4.9739490           4.8687621
 Leave Link  202 at Wed Jun 24 00:58:13 2026, MaxMem=  1879048192 cpu:               0.0 elap:               0.0
 (Enter /CH/g16/l601.exe)
 Copying SCF densities to generalized density rwf, IOpCl= 0 IROHF=0.

 **********************************************************************

            Population analysis using the SCF Density.

 **********************************************************************

 Orbital symmetries:
       Occupied  (A) (A) (A) (A) (A) (A) (A) (A) (A) (A) (A) (A)
                 (A) (A) (A) (A)
       Virtual   (A) (A) (A) (A) (A) (A) (A) (A) (A) (A) (A) (A)
                 (A) (A) (A) (A) (A) (A) (A) (A) (A) (A) (A) (A)
                 (A) (A) (A) (A) (A) (A) (A) (A) (A) (A) (A) (A)
                 (A) (A) (A) (A) (A) (A) (A) (A) (A) (A) (A) (A)
                 (A) (A) (A) (A) (A) (A) (A)
 The electronic state is 1-A.
 Alpha  occ. eigenvalues --  -66.15276 -19.14788  -6.79344  -5.31666  -3.68093
 Alpha  occ. eigenvalues --   -3.67741  -3.67727  -1.00291  -0.61396  -0.48307
 Alpha  occ. eigenvalues --   -0.42798  -0.42275  -0.41156  -0.35216  -0.33482
 Alpha  occ. eigenvalues --   -0.27905
 Alpha virt. eigenvalues --   -0.02085   0.02277   0.07685   0.08058   0.09190
 Alpha virt. eigenvalues --    0.14267   0.15765   0.20105   0.21576   0.24883
 Alpha virt. eigenvalues --    0.28032   0.28859   0.33312   0.33523   0.40173
 Alpha virt. eigenvalues --    0.43964   0.46421   0.52055   0.54002   0.55237
 Alpha virt. eigenvalues --    0.64537   0.66085   0.69482   0.87990   0.88886
 Alpha virt. eigenvalues --    0.90895   0.92990   1.01341   1.17314   1.18420
 Alpha virt. eigenvalues --    1.22050   1.29176   1.33185   1.36740   1.47105
 Alpha virt. eigenvalues --    1.52845   1.55385   1.61999   1.69539   1.71076
 Alpha virt. eigenvalues --    1.73185   1.80143   1.80301   1.83198   1.97962
 Alpha virt. eigenvalues --    2.14557   2.16675   2.16902   2.44036   2.47251
 Alpha virt. eigenvalues --    2.64577   2.77920   2.91820   3.15140   3.39506
          Condensed to atoms (all electrons):
               1          2          3          4          5          6
     1  B    3.593617   0.543663  -0.026630   0.371615   0.371624  -0.002462
     2  O    0.543663   7.475886   0.359609  -0.033315  -0.033314  -0.015946
     3  Si  -0.026630   0.359609  11.896112   0.000655   0.000655   0.382257
     4  H    0.371615  -0.033315   0.000655   0.836378  -0.079281   0.001381
     5  H    0.371624  -0.033314   0.000655  -0.079281   0.836369  -0.000446
     6  H   -0.002462  -0.015946   0.382257   0.001381  -0.000446   0.787891
     7  H   -0.002460  -0.015940   0.382263  -0.000446   0.001378  -0.025929
     8  H   -0.000951  -0.014594   0.386116  -0.000054  -0.000052  -0.022255
               7          8
     1  B   -0.002460  -0.000951
     2  O   -0.015940  -0.014594
     3  Si   0.382263   0.386116
     4  H   -0.000446  -0.000054
     5  H    0.001378  -0.000052
     6  H   -0.025929  -0.022255
     7  H    0.787876  -0.022253
     8  H   -0.022253   0.776094
 Mulliken charges:
               1
     1  B    0.151984
     2  O   -0.266049
     3  Si   0.618963
     4  H   -0.096934
     5  H   -0.096933
     6  H   -0.104492
     7  H   -0.104489
     8  H   -0.102052
 Sum of Mulliken charges =  -0.00000
 Mulliken charges with hydrogens summed into heavy atoms:
               1
     1  B   -0.041882
     2  O   -0.266049
     3  Si   0.307931
 Electronic spatial extent (au):  <R**2>=            297.2115
 Charge=             -0.0000 electrons
 Dipole moment (field-independent basis, Debye):
    X=             -1.5602    Y=              0.0000    Z=             -0.0216  Tot=              1.5604
 Quadrupole moment (field-independent basis, Debye-Ang):
   XX=            -29.4014   YY=            -28.8828   ZZ=            -26.7519
   XY=              0.0001   XZ=             -0.0078   YZ=             -0.0001
 Traceless Quadrupole moment (field-independent basis, Debye-Ang):
   XX=             -1.0560   YY=             -0.5374   ZZ=              1.5935
   XY=              0.0001   XZ=             -0.0078   YZ=             -0.0001
 Octapole moment (field-independent basis, Debye-Ang**2):
  XXX=            -16.8712  YYY=             -0.0029  ZZZ=             -0.6443  XYY=             -2.9313
  XXY=             -0.0002  XXZ=              0.4976  XZZ=              1.2664  YZZ=              0.0029
  YYZ=              1.1431  XYZ=             -0.0002
 Hexadecapole moment (field-independent basis, Debye-Ang**3):
 XXXX=           -394.3699 YYYY=            -68.4412 ZZZZ=            -50.8464 XXXY=              0.0004
 XXXZ=              0.9987 YYYX=              0.0034 YYYZ=             -0.0000 ZZZX=              1.1027
 ZZZY=             -0.0005 XXYY=            -81.2265 XXZZ=            -69.1701 YYZZ=            -20.0722
 XXYZ=             -0.0005 YYXZ=             -1.0055 ZZXY=             -0.0031
 N-N= 9.966250711254D+01 E-N=-1.128567251737D+03  KE= 3.904627022370D+02
 No NMR shielding tensors so no spin-rotation constants.
 Leave Link  601 at Wed Jun 24 00:58:13 2026, MaxMem=  1879048192 cpu:               0.3 elap:               0.1
 (Enter /CH/g16/l9999.exe)
 Unable to Open any file for archive entry.
 1\1\GINC-NODE0-CHCLUSTER\FOpt\RB3LYP\def2SVP\B1H5O1Si1\LS\24-Jun-2026\
 0\\#p B3LYP/def2SVP EmpiricalDispersion=GD3BJ opt SCRF=(SMD,Solvent=Te
 trahydrofuran) int=ultrafine\\BSiOx\\0,1\B,-0.1757675055,0.0032391706,
 -0.1204730421\O,1.1600950084,0.0007297356,-0.1783530275\Si,2.820822761
 8,-0.0024657534,-0.154425972\H,-0.7730025612,1.0599140696,-0.094641124
 3\H,-0.7770357293,-1.0511875493,-0.096275324\H,3.3057369477,1.21297506
 83,0.5530216418\H,3.3010821151,-1.2195658987,0.5533708325\H,3.29175255
 98,-0.0036388428,-1.5633847563\\Version=ES64L-G16RevC.02\State=1-A\HF=
 -392.4909273\RMSD=9.475e-09\RMSF=6.673e-06\Dipole=0.6138828,-0.001169,
 0.0030157\Quadrupole=-0.7850781,-0.3995583,1.1846363,0.0006793,0.01186
 03,-0.001236\PG=C01 [X(B1H5O1Si1)]\\@
 The archive entry for this job was punched.


            THE IRISH PIG
 'TWAS AN EVENING IN NOVEMBER,
 AS I VERY WELL REMEMBER
 I WAS STROLLING DOWN THE STREET IN DRUNKEN PRIDE,
 BUT MY KNEES WERE ALL A'FLUTTER
 SO I LANDED IN THE GUTTER,
 AND A PIG CAME UP AND LAY DOWN BY MY SIDE.

 YES, I LAY THERE IN THE GUTTER
 THINKING THOUGHTS I COULD NOT UTTER
 WHEN A COLLEEN PASSING BY DID SOFTLY SAY,
 'YE CAN TELL A MAN THAT BOOZES
 BY THE COMPANY THAT HE CHOOSES.' -
 AT THAT, THE PIG GOT UP AND WALKED AWAY!
     -- THE ECONOMIST, AUGUST 23, 1986
 Job cpu time:       0 days  0 hours  3 minutes 24.1 seconds.
 Elapsed time:       0 days  0 hours  0 minutes 33.6 seconds.
 File lengths (MBytes):  RWF=     19 Int=      0 D2E=      0 Chk=      3 Scr=      1
 Normal termination of Gaussian 16 at Wed Jun 24 00:58:13 2026.
