 Entering Gaussian System, Link 0=/CH/g16/g16
 Initial command:
 /CH/g16/l1.exe "/tmp/g16cx2_disiloxane_2936425/Gau-2936432.inp" -scrdir="/tmp/g16cx2_disiloxane_2936425/"
 Default is to use a total of  96 processors:
                               96 via shared-memory
                                1 via Linda
 Entering Link 1 = /CH/g16/l1.exe PID=   2936435.
  
 Copyright (c) 1988-2021, Gaussian, Inc.  All Rights Reserved.
  
 This is part of the Gaussian(R) 16 program.  It is based on
 the Gaussian(R) 09 system (copyright 2009, Gaussian, Inc.),
 the Gaussian(R) 03 system (copyright 2003, Gaussian, Inc.),
 the Gaussian(R) 98 system (copyright 1998, Gaussian, Inc.),
 the Gaussian(R) 94 system (copyright 1995, Gaussian, Inc.),
 the Gaussian 92(TM) system (copyright 1992, Gaussian, Inc.),
 the Gaussian 90(TM) system (copyright 1990, Gaussian, Inc.),
 the Gaussian 88(TM) system (copyright 1988, Gaussian, Inc.),
 the Gaussian 86(TM) system (copyright 1986, Carnegie Mellon
 University), and the Gaussian 82(TM) system (copyright 1983,
 Carnegie Mellon University). Gaussian is a federally registered
 trademark of Gaussian, Inc.
  
 This software contains proprietary and confidential information,
 including trade secrets, belonging to Gaussian, Inc.
  
 This software is provided under written license and may be
 used, copied, transmitted, or stored only in accord with that
 written license.
  
 The following legend is applicable only to US Government
 contracts under FAR:
  
                    RESTRICTED RIGHTS LEGEND
  
 Use, reproduction and disclosure by the US Government is
 subject to restrictions as set forth in subparagraphs (a)
 and (c) of the Commercial Computer Software - Restricted
 Rights clause in FAR 52.227-19.
  
 Gaussian, Inc.
 340 Quinnipiac St., Bldg. 40, Wallingford CT 06492
  
  
 ---------------------------------------------------------------
 Warning -- This program may not be used in any manner that
 competes with the business of Gaussian, Inc. or will provide
 assistance to any competitor of Gaussian, Inc.  The licensee
 of this program is prohibited from giving any competitor of
 Gaussian, Inc. access to this program.  By using this program,
 the user acknowledges that Gaussian, Inc. is engaged in the
 business of creating and licensing software in the field of
 computational chemistry and represents and warrants to the
 licensee that it is not a competitor of Gaussian, Inc. and that
 it will not use this program in any manner prohibited above.
 ---------------------------------------------------------------
  

 Cite this work as:
 Gaussian 16, Revision C.02,
 M. J. Frisch, G. W. Trucks, H. B. Schlegel, G. E. Scuseria, 
 M. A. Robb, J. R. Cheeseman, G. Scalmani, V. Barone, 
 G. A. Petersson, H. Nakatsuji, X. Li, M. Caricato, A. V. Marenich, 
 J. Bloino, B. G. Janesko, R. Gomperts, B. Mennucci, H. P. Hratchian, 
 J. V. Ortiz, A. F. Izmaylov, J. L. Sonnenberg, D. Williams-Young, 
 F. Ding, F. Lipparini, F. Egidi, J. Goings, B. Peng, A. Petrone, 
 T. Henderson, D. Ranasinghe, V. G. Zakrzewski, J. Gao, N. Rega, 
 G. Zheng, W. Liang, M. Hada, M. Ehara, K. Toyota, R. Fukuda, 
 J. Hasegawa, M. Ishida, T. Nakajima, Y. Honda, O. Kitao, H. Nakai, 
 T. Vreven, K. Throssell, J. A. Montgomery, Jr., J. E. Peralta, 
 F. Ogliaro, M. J. Bearpark, J. J. Heyd, E. N. Brothers, K. N. Kudin, 
 V. N. Staroverov, T. A. Keith, R. Kobayashi, J. Normand, 
 K. Raghavachari, A. P. Rendell, J. C. Burant, S. S. Iyengar, 
 J. Tomasi, M. Cossi, J. M. Millam, M. Klene, C. Adamo, R. Cammi, 
 J. W. Ochterski, R. L. Martin, K. Morokuma, O. Farkas, 
 J. B. Foresman, and D. J. Fox, Gaussian, Inc., Wallingford CT, 2019.
 
 ******************************************
 Gaussian 16:  ES64L-G16RevC.02  7-Dec-2021
                24-Jun-2026 
 ******************************************
 %chk=disiloxane_cpx.chk
 %nprocshared=8
 Will use up to    8 processors via shared memory.
 %mem=14GB
 ----------------------------------------------------------------------
 #p B3LYP/def2SVP EmpiricalDispersion=GD3BJ opt=(maxcycles=200) scf=xqc
  SCRF=(SMD,Solvent=Tetrahydrofuran) int=ultrafine
 ----------------------------------------------------------------------
 1/6=200,18=20,19=15,26=6,38=1/1,3;
 2/9=110,12=2,17=6,18=5,40=1/2;
 3/5=43,7=101,11=2,25=1,30=1,70=32201,71=1,72=20,74=-5,75=-5,124=41/1,2,3;
 4//1;
 5/5=2,8=3,13=1,38=5,53=20/2,8;
 6/7=2,8=2,9=2,10=2,28=1/1;
 7//1,2,3,16;
 1/6=200,18=20,19=15,26=6/3(2);
 2/9=110/2;
 99//99;
 2/9=110/2;
 3/5=43,7=101,11=2,25=1,30=1,70=32205,71=1,72=20,74=-5,75=-5,124=41/1,2,3;
 4/5=5,16=3,69=1/1;
 5/5=2,8=3,13=1,38=5,53=20/2,8;
 7//1,2,3,16;
 1/6=200,18=20,19=15,26=6/3(-5);
 2/9=110/2;
 6/7=2,8=2,9=2,10=2,19=2,28=1/1;
 99/9=1/99;
 Leave Link    1 at Wed Jun 24 01:11:46 2026, MaxMem=  1879048192 cpu:               1.0 elap:               0.0
 (Enter /CH/g16/l101.exe)
 ---------------------------
 disiloxane+AlCl4(-) restart
 ---------------------------
 Symbolic Z-matrix:
 Charge = -1 Multiplicity = 1
 Si                    3.49774   1.32325   0.01192 
 O                     3.34253  -0.32675  -0.07168 
 Si                    2.27496  -1.60191   0.00896 
 H                     4.92019   1.61288   0.3569 
 H                     2.6228    1.90539   1.06666 
 H                     3.20332   1.95293  -1.30311 
 H                     3.07631  -2.80316   0.38968 
 H                     1.25207  -1.36545   1.05955 
 H                     1.64516  -1.86228  -1.31051 
 Al                   -1.5401    0.07814   0.01177 
 Cl                    0.12012   1.05426  -1.00214 
 Cl                   -1.26651   0.23025   2.15126 
 Cl                   -1.61593  -1.99959  -0.58282 
 Cl                   -3.37042   1.07149  -0.574 
 
 Add virtual bond connecting atoms Al10       and H8         Dist= 6.26D+00.
 Add virtual bond connecting atoms Cl11       and H6         Dist= 6.10D+00.
 Add virtual bond connecting atoms Cl11       and H9         Dist= 6.25D+00.
 Add virtual bond connecting atoms Cl12       and H8         Dist= 6.00D+00.
 ITRead=  0  0  0  0  0  0  0  0  0  0  0  0  0  0
 MicOpt= -1 -1 -1 -1 -1 -1 -1 -1 -1 -1 -1 -1 -1 -1
 NAtoms=     14 NQM=       14 NQMF=       0 NMMI=      0 NMMIF=      0
                NMic=       0 NMicF=      0.
                    Isotopes and Nuclear Properties:
 (Nuclear quadrupole moments (NQMom) in fm**2, nuclear magnetic moments (NMagM)
  in nuclear magnetons)

  Atom         1           2           3           4           5           6           7           8           9          10
 IAtWgt=          28          16          28           1           1           1           1           1           1          27
 AtmWgt=  27.9769284  15.9949146  27.9769284   1.0078250   1.0078250   1.0078250   1.0078250   1.0078250   1.0078250  26.9815413
 NucSpn=           0           0           0           1           1           1           1           1           1           5
 AtZEff=  -0.0000000  -0.0000000  -0.0000000  -0.0000000  -0.0000000  -0.0000000  -0.0000000  -0.0000000  -0.0000000  -0.0000000
 NQMom=    0.0000000   0.0000000   0.0000000   0.0000000   0.0000000   0.0000000   0.0000000   0.0000000   0.0000000  14.6600000
 NMagM=    0.0000000   0.0000000   0.0000000   2.7928460   2.7928460   2.7928460   2.7928460   2.7928460   2.7928460   3.6415040
 AtZNuc=  14.0000000   8.0000000  14.0000000   1.0000000   1.0000000   1.0000000   1.0000000   1.0000000   1.0000000  13.0000000

  Atom        11          12          13          14
 IAtWgt=          35          35          35          35
 AtmWgt=  34.9688527  34.9688527  34.9688527  34.9688527
 NucSpn=           3           3           3           3
 AtZEff=  -0.0000000  -0.0000000  -0.0000000  -0.0000000
 NQMom=   -8.1650000  -8.1650000  -8.1650000  -8.1650000
 NMagM=    0.8218740   0.8218740   0.8218740   0.8218740
 AtZNuc=  17.0000000  17.0000000  17.0000000  17.0000000
 Leave Link  101 at Wed Jun 24 01:11:47 2026, MaxMem=  1879048192 cpu:               0.4 elap:               0.3
 (Enter /CH/g16/l103.exe)

 GradGradGradGradGradGradGradGradGradGradGradGradGradGradGradGradGradGrad
 Berny optimization.
 Initialization pass.
                           ----------------------------
                           !    Initial Parameters    !
                           ! (Angstroms and Degrees)  !
 --------------------------                            --------------------------
 ! Name  Definition              Value          Derivative Info.                !
 --------------------------------------------------------------------------------
 ! R1    R(1,2)                  1.6594         estimate D2E/DX2                !
 ! R2    R(1,4)                  1.4921         estimate D2E/DX2                !
 ! R3    R(1,5)                  1.4889         estimate D2E/DX2                !
 ! R4    R(1,6)                  1.4874         estimate D2E/DX2                !
 ! R5    R(2,3)                  1.665          estimate D2E/DX2                !
 ! R6    R(3,7)                  1.4934         estimate D2E/DX2                !
 ! R7    R(3,8)                  1.4852         estimate D2E/DX2                !
 ! R8    R(3,9)                  1.4851         estimate D2E/DX2                !
 ! R9    R(6,11)                 3.2256         estimate D2E/DX2                !
 ! R10   R(8,10)                 3.3133         estimate D2E/DX2                !
 ! R11   R(8,12)                 3.1751         estimate D2E/DX2                !
 ! R12   R(9,11)                 3.3056         estimate D2E/DX2                !
 ! R13   R(10,11)                2.1765         estimate D2E/DX2                !
 ! R14   R(10,12)                2.1623         estimate D2E/DX2                !
 ! R15   R(10,13)                2.1625         estimate D2E/DX2                !
 ! R16   R(10,14)                2.1633         estimate D2E/DX2                !
 ! A1    A(2,1,4)              107.0876         estimate D2E/DX2                !
 ! A2    A(2,1,5)              111.6844         estimate D2E/DX2                !
 ! A3    A(2,1,6)              110.9701         estimate D2E/DX2                !
 ! A4    A(4,1,5)              108.6953         estimate D2E/DX2                !
 ! A5    A(4,1,6)              108.1157         estimate D2E/DX2                !
 ! A6    A(5,1,6)              110.1484         estimate D2E/DX2                !
 ! A7    A(1,2,3)              144.9906         estimate D2E/DX2                !
 ! A8    A(2,3,7)              106.5193         estimate D2E/DX2                !
 ! A9    A(2,3,8)              110.7267         estimate D2E/DX2                !
 ! A10   A(2,3,9)              111.2943         estimate D2E/DX2                !
 ! A11   A(7,3,8)              108.4994         estimate D2E/DX2                !
 ! A12   A(7,3,9)              108.2433         estimate D2E/DX2                !
 ! A13   A(8,3,9)              111.3655         estimate D2E/DX2                !
 ! A14   A(1,6,11)              89.3563         estimate D2E/DX2                !
 ! A15   A(3,8,10)             115.2174         estimate D2E/DX2                !
 ! A16   A(3,8,12)             150.4026         estimate D2E/DX2                !
 ! A17   A(3,9,11)              87.5974         estimate D2E/DX2                !
 ! A18   A(8,10,11)             72.5364         estimate D2E/DX2                !
 ! A19   A(8,10,13)             72.415          estimate D2E/DX2                !
 ! A20   A(11,10,12)           109.4432         estimate D2E/DX2                !
 ! A21   A(11,10,13)           109.2426         estimate D2E/DX2                !
 ! A22   A(11,10,14)           108.2586         estimate D2E/DX2                !
 ! A23   A(12,10,13)           110.1263         estimate D2E/DX2                !
 ! A24   A(12,10,14)           110.0398         estimate D2E/DX2                !
 ! A25   A(13,10,14)           109.6982         estimate D2E/DX2                !
 ! A26   A(6,11,9)              78.2364         estimate D2E/DX2                !
 ! A27   A(6,11,10)            153.8368         estimate D2E/DX2                !
 ! A28   A(9,11,10)             89.9814         estimate D2E/DX2                !
 ! A29   L(8,10,14,11,-1)      180.795          estimate D2E/DX2                !
 ! A30   L(8,10,14,11,-2)      182.972          estimate D2E/DX2                !
 ! D1    D(4,1,2,3)            157.8915         estimate D2E/DX2                !
 ! D2    D(5,1,2,3)             39.0029         estimate D2E/DX2                !
 ! D3    D(6,1,2,3)            -84.3213         estimate D2E/DX2                !
 ! D4    D(2,1,6,11)            67.4734         estimate D2E/DX2                !
 ! D5    D(4,1,6,11)          -175.3668         estimate D2E/DX2                !
 ! D6    D(5,1,6,11)           -56.729          estimate D2E/DX2                !
 ! D7    D(1,2,3,7)           -156.3719         estimate D2E/DX2                !
 ! D8    D(1,2,3,8)            -38.5915         estimate D2E/DX2                !
 ! D9    D(1,2,3,9)             85.8496         estimate D2E/DX2                !
 ! D10   D(2,3,8,10)            92.7469         estimate D2E/DX2                !
 ! D11   D(2,3,8,12)            68.7569         estimate D2E/DX2                !
 ! D12   D(7,3,8,10)          -150.6899         estimate D2E/DX2                !
 ! D13   D(7,3,8,12)          -174.6799         estimate D2E/DX2                !
 ! D14   D(9,3,8,10)           -31.6537         estimate D2E/DX2                !
 ! D15   D(9,3,8,12)           -55.6437         estimate D2E/DX2                !
 ! D16   D(2,3,9,11)           -67.2383         estimate D2E/DX2                !
 ! D17   D(7,3,9,11)           176.0309         estimate D2E/DX2                !
 ! D18   D(8,3,9,11)            56.842          estimate D2E/DX2                !
 ! D19   D(1,6,11,9)           -66.8639         estimate D2E/DX2                !
 ! D20   D(1,6,11,10)           -1.9927         estimate D2E/DX2                !
 ! D21   D(3,8,10,11)          -40.5651         estimate D2E/DX2                !
 ! D22   D(3,8,10,13)           76.9599         estimate D2E/DX2                !
 ! D23   D(3,9,11,6)            67.1481         estimate D2E/DX2                !
 ! D24   D(3,9,11,10)          -89.3239         estimate D2E/DX2                !
 ! D25   D(8,10,11,6)          -23.6533         estimate D2E/DX2                !
 ! D26   D(8,10,11,9)           38.7636         estimate D2E/DX2                !
 ! D27   D(12,10,11,6)          33.4327         estimate D2E/DX2                !
 ! D28   D(12,10,11,9)          95.8496         estimate D2E/DX2                !
 ! D29   D(13,10,11,6)         -87.2122         estimate D2E/DX2                !
 ! D30   D(13,10,11,9)         -24.7953         estimate D2E/DX2                !
 ! D31   D(14,10,11,6)         153.3747         estimate D2E/DX2                !
 ! D32   D(14,10,11,9)        -144.2084         estimate D2E/DX2                !
 --------------------------------------------------------------------------------
 Trust Radius=3.00D-01 FncErr=5.00D-06 GrdErr=5.00D-06 EigMax=2.50D+02 EigMin=1.00D-04
 Number of steps in this run=    100 maximum allowed number of steps=    100.
 GradGradGradGradGradGradGradGradGradGradGradGradGradGradGradGradGradGrad

 Leave Link  103 at Wed Jun 24 01:11:47 2026, MaxMem=  1879048192 cpu:               0.0 elap:               0.0
 (Enter /CH/g16/l202.exe)
                          Input orientation:                          
 ---------------------------------------------------------------------
 Center     Atomic      Atomic             Coordinates (Angstroms)
 Number     Number       Type             X           Y           Z
 ---------------------------------------------------------------------
      1         14           0        3.497740    1.323250    0.011920
      2          8           0        3.342530   -0.326750   -0.071680
      3         14           0        2.274960   -1.601910    0.008960
      4          1           0        4.920190    1.612880    0.356900
      5          1           0        2.622800    1.905390    1.066660
      6          1           0        3.203320    1.952930   -1.303110
      7          1           0        3.076310   -2.803160    0.389680
      8          1           0        1.252070   -1.365450    1.059550
      9          1           0        1.645160   -1.862280   -1.310510
     10         13           0       -1.540100    0.078140    0.011770
     11         17           0        0.120120    1.054260   -1.002140
     12         17           0       -1.266510    0.230250    2.151260
     13         17           0       -1.615930   -1.999590   -0.582820
     14         17           0       -3.370420    1.071490   -0.574000
 ---------------------------------------------------------------------
                    Distance matrix (angstroms):
                    1          2          3          4          5
     1  Si   0.000000
     2  O    1.659391   0.000000
     3  Si   3.170451   1.665005   0.000000
     4  H    1.492066   2.536702   4.177700   0.000000
     5  H    1.488920   2.606967   3.679793   2.422256   0.000000
     6  H    1.487442   2.594752   3.901316   2.412242   2.440302
     7  H    4.165041   2.533048   1.493356   4.785643   4.778537
     8  H    3.656456   2.593955   1.485246   4.776952   3.546455
     9  H    3.915160   2.602617   1.485073   5.057946   4.560927
    10  Al   5.189425   4.900100   4.168604   6.649052   4.667052
    11  Cl   3.536805   3.627240   3.566637   5.019932   3.356749
    12  Cl   5.335682   5.147326   4.526397   6.588372   4.371405
    13  Cl   6.127365   5.257945   3.955677   7.526877   5.994705
    14  Cl   6.897703   6.875398   6.273534   8.360257   6.269437
                    6          7          8          9         10
     6  H    0.000000
     7  H    5.049957   0.000000
     8  H    4.516767   2.417351   0.000000
     9  H    4.121134   2.413315   2.453272   0.000000
    10  Al   5.267236   5.454901   3.313308   3.957213   0.000000
    11  Cl   3.225572   5.055285   3.374444   3.305608   2.176500
    12  Cl   5.905902   5.582547   3.175112   4.984010   2.162269
    13  Cl   6.274265   4.858868   3.365254   3.344113   2.162464
    14  Cl   6.672525   7.583002   5.474904   5.857089   2.163317
                   11         12         13         14
    11  Cl   0.000000
    12  Cl   3.541986   0.000000
    13  Cl   3.537753   3.545345   0.000000
    14  Cl   3.516741   3.544173   3.536926   0.000000
 Stoichiometry    AlCl4H6OSi2(1-)
 Framework group  C1[X(AlCl4H6OSi2)]
 Deg. of freedom    36
 Full point group                 C1      NOp   1
 Largest Abelian subgroup         C1      NOp   1
 Largest concise Abelian subgroup C1      NOp   1
                         Standard orientation:                         
 ---------------------------------------------------------------------
 Center     Atomic      Atomic             Coordinates (Angstroms)
 Number     Number       Type             X           Y           Z
 ---------------------------------------------------------------------
      1         14           0       -3.497741   -1.323249    0.011919
      2          8           0       -3.342530    0.326751   -0.071681
      3         14           0       -2.274959    1.601910    0.008959
      4          1           0       -4.920191   -1.612878    0.356899
      5          1           0       -2.622801   -1.905390    1.066659
      6          1           0       -3.203321   -1.952929   -1.303111
      7          1           0       -3.076308    2.803161    0.389679
      8          1           0       -1.252069    1.365450    1.059549
      9          1           0       -1.645159    1.862280   -1.310511
     10         13           0        1.540100   -0.078142    0.011769
     11         17           0       -0.120121   -1.054261   -1.002141
     12         17           0        1.266510   -0.230252    2.151259
     13         17           0        1.615931    1.999588   -0.582821
     14         17           0        3.370419   -1.071493   -0.574001
 ---------------------------------------------------------------------
 Rotational constants (GHZ):           0.8520188           0.3251014           0.2981951
 Leave Link  202 at Wed Jun 24 01:11:47 2026, MaxMem=  1879048192 cpu:               0.0 elap:               0.0
 (Enter /CH/g16/l301.exe)
 Standard basis: def2SVP (5D, 7F)
 Ernie: Thresh=  0.10000D-02 Tol=  0.10000D-05 Strict=F.
 There are   178 symmetry adapted cartesian basis functions of A   symmetry.
 There are   170 symmetry adapted basis functions of A   symmetry.
   170 basis functions,   326 primitive gaussians,   178 cartesian basis functions
    62 alpha electrons       62 beta electrons
       nuclear repulsion energy      1010.8930756245 Hartrees.
 IExCor=  402 DFT=T Ex+Corr=B3LYP ExCW=0 ScaHFX=  0.200000
 ScaDFX=  0.800000  0.720000  1.000000  0.810000 ScalE2=  1.000000  1.000000
 IRadAn=      5 IRanWt=     -1 IRanGd=            0 ICorTp=0 IEmpDi=141
 NAtoms=   14 NActive=   14 NUniq=   14 SFac= 1.00D+00 NAtFMM=   60 NAOKFM=F Big=F
 Integral buffers will be    131072 words long.
 Raffenetti 2 integral format.
 Two-electron integral symmetry is turned on.
 R6Disp:  Grimme-D3(BJ) Dispersion energy=       -0.0350951410 Hartrees.
 Nuclear repulsion after empirical dispersion term =     1010.8579804835 Hartrees.
 ------------------------------------------------------------------------------
 Polarizable Continuum Model (PCM)
 =================================
 Model                : PCM.
 Atomic radii         : SMD-Coulomb.
 Polarization charges : Total charges.
 Charge compensation  : None.
 Solution method      : On-the-fly selection.
 Cavity type          : VdW (van der Waals Surface) (Alpha=1.000).
 Cavity algorithm     : GePol (No added spheres)
                        Default sphere list used, NSphG=   14.
                        Lebedev-Laikov grids with approx.  5.0 points / Ang**2.
                        Smoothing algorithm: York/Karplus (Gamma=1.0000).
                        Polarization charges: spherical gaussians, with
                                              point-specific exponents (IZeta= 3).
                        Self-potential: point-specific (ISelfS= 7).
                        Self-field    : sphere-specific E.n sum rule (ISelfD= 2).
 1st derivatives      : Analytical E(r).r(x)/FMM algorithm (CHGder, D1EAlg=3).
                        Cavity 1st derivative terms included.
 Solvent              : TetraHydroFuran, Eps=   7.425700 Eps(inf)=   1.974025
 ------------------------------------------------------------------------------
 Spheres list:
 ISph  on   Nord     Re0    Alpha      Xe            Ye            Ze
    1  Si      1    2.4700  1.000     -3.497741     -1.323249      0.011919
    2   O      2    2.2940  1.000     -3.342530      0.326751     -0.071681
    3  Si      3    2.4700  1.000     -2.274959      1.601910      0.008959
    4   H      4    1.2000  1.000     -4.920191     -1.612878      0.356899
    5   H      5    1.2000  1.000     -2.622801     -1.905390      1.066659
    6   H      6    1.2000  1.000     -3.203321     -1.952929     -1.303111
    7   H      7    1.2000  1.000     -3.076308      2.803161      0.389679
    8   H      8    1.2000  1.000     -1.252069      1.365450      1.059549
    9   H      9    1.2000  1.000     -1.645159      1.862280     -1.310511
   10  Al     10    2.3000  1.000      1.540100     -0.078142      0.011769
   11  Cl     11    2.3800  1.000     -0.120121     -1.054261     -1.002141
   12  Cl     12    2.3800  1.000      1.266510     -0.230252      2.151259
   13  Cl     13    2.3800  1.000      1.615931      1.999588     -0.582821
   14  Cl     14    2.3800  1.000      3.370419     -1.071493     -0.574001
 ------------------------------------------------------------------------------
 GePol: Number of generator spheres                  =      14
 GePol: Total number of spheres                      =      14
 GePol: Number of exposed spheres                    =      14 (100.00%)
 GePol: Number of points                             =    1935
 GePol: Average weight of points                     =       0.14
 GePol: Minimum weight of points                     =   0.19D-10
 GePol: Maximum weight of points                     =    0.19536
 GePol: Number of points with low weight             =      61
 GePol: Fraction of low-weight points (<1% of avg)   =       3.15%
 GePol: Cavity surface area                          =    277.642 Ang**2
 GePol: Cavity volume                                =    307.216 Ang**3
 ------------------------------------------------------------------------------
 Atomic radii for non-electrostatic terms: SMD-CDS.
 ------------------------------------------------------------------------------
 PCM non-electrostatic energy =        -0.0036801335 Hartrees.
 Nuclear repulsion after PCM non-electrostatic terms =     1010.8543003500 Hartrees.
 Leave Link  301 at Wed Jun 24 01:11:47 2026, MaxMem=  1879048192 cpu:               0.1 elap:               0.0
 (Enter /CH/g16/l302.exe)
 NPDir=0 NMtPBC=     1 NCelOv=     1 NCel=       1 NClECP=     1 NCelD=      1
         NCelK=      1 NCelE2=     1 NClLst=     1 CellRange=     0.0.
 One-electron integrals computed using PRISM.
 One-electron integral symmetry used in STVInt
   1 Symmetry operations used in ECPInt.
 ECPInt:  NShTT=    3240 NPrTT=   14388 LenC2=    2967 LenP2D=    8815.
 LDataN:  DoStor=T MaxTD1= 4 Len=   56
 NBasis=   170 RedAO= T EigKep=  9.40D-03  NBF=   170
 NBsUse=   170 1.00D-06 EigRej= -1.00D+00 NBFU=   170
 Precomputing XC quadrature grid using
 IXCGrd= 4 IRadAn=           5 IRanWt=          -1 IRanGd=           0 AccXCQ= 0.00D+00.
 Generated NRdTot=       0 NPtTot=           0 NUsed=           0 NTot=          32
 NSgBfM=   176   176   176   176   176 MxSgAt=    14 MxSgA2=    14.
 Leave Link  302 at Wed Jun 24 01:11:47 2026, MaxMem=  1879048192 cpu:               0.4 elap:               0.1
 (Enter /CH/g16/l303.exe)
 DipDrv:  MaxL=1.
 Leave Link  303 at Wed Jun 24 01:11:47 2026, MaxMem=  1879048192 cpu:               0.1 elap:               0.0
 (Enter /CH/g16/l401.exe)
 ExpMin= 5.44D-02 ExpMax= 1.04D+04 ExpMxC= 1.57D+03 IAcc=3 IRadAn=         5 AccDes= 0.00D+00
 Harris functional with IExCor=  402 and IRadAn=       5 diagonalized for initial guess.
 HarFok:  IExCor=  402 AccDes= 0.00D+00 IRadAn=         5 IDoV= 1 UseB2=F ITyADJ=14
 ICtDFT=  3500011 ScaDFX=  1.000000  1.000000  1.000000  1.000000
 FoFCou: FMM=F IPFlag=           0 FMFlag=      100000 FMFlg1=           0
         NFxFlg=           0 DoJE=T BraDBF=F KetDBF=T FulRan=T
         wScrn=  0.000000 ICntrl=       500 IOpCl=  0 I1Cent=   200000004 NGrid=           0
         NMat0=    1 NMatS0=      1 NMatT0=    0 NMatD0=    1 NMtDS0=    0 NMtDT0=    0
 Petite list used in FoFCou.
 Harris En= -2740.41269475930    
 JPrj=0 DoOrth=F DoCkMO=F.
 Leave Link  401 at Wed Jun 24 01:11:47 2026, MaxMem=  1879048192 cpu:               1.6 elap:               0.2
 (Enter /CH/g16/l502.exe)
 Integral symmetry usage will be decided dynamically.
 Closed shell SCF:
 Using DIIS extrapolation, IDIIS=  1040.
 NGot=  1879048192 LenX=  1878981132 LenY=  1878949007
 Requested convergence on RMS density matrix=1.00D-08 within  32 cycles.
 Requested convergence on MAX density matrix=1.00D-06.
 Requested convergence on             energy=1.00D-06.
 No special actions if energy rises.
 Fock matrices will be formed incrementally for  20 cycles.

 Cycle   1  Pass 1  IDiag  1:
 FoFJK:  IHMeth= 1 ICntrl=       0 DoSepK=F KAlg= 0 I1Cent=           0 FoldK=F
 IRaf= 860000000 NMat=       1 IRICut=       1 DoRegI=T DoRafI=F ISym2E= 0 IDoP0=0 IntGTp=1.
 FoFCou: FMM=F IPFlag=           0 FMFlag=      100000 FMFlg1=           0
         NFxFlg=           0 DoJE=F BraDBF=F KetDBF=F FulRan=T
         wScrn=  0.000000 ICntrl=         0 IOpCl=  0 I1Cent=           0 NGrid=           0
         NMat0=    1 NMatS0=      1 NMatT0=    0 NMatD0=    1 NMtDS0=    0 NMtDT0=    0
 Symmetry not used in FoFCou.
 Inv3:  Mode=1 IEnd=    11232675.
 Iteration    1 A*A^-1 deviation from unit magnitude is 3.77D-15 for     65.
 Iteration    1 A*A^-1 deviation from orthogonality  is 1.78D-15 for   1002    766.
 Iteration    1 A^-1*A deviation from unit magnitude is 3.55D-15 for     65.
 Iteration    1 A^-1*A deviation from orthogonality  is 1.64D-15 for   1388    319.
 E= -2740.70960162202    
 DIIS: error= 3.77D-02 at cycle   1 NSaved=   1.
 NSaved= 1 IEnMin= 1 EnMin= -2740.70960162202     IErMin= 1 ErrMin= 3.77D-02
 ErrMax= 3.77D-02  0.00D+00 EMaxC= 1.00D-01 BMatC= 1.44D-01 BMatP= 1.44D-01
 IDIUse=3 WtCom= 6.23D-01 WtEn= 3.77D-01
 Coeff-Com:  0.100D+01
 Coeff-En:   0.100D+01
 Coeff:      0.100D+01
 Gap=     0.299 Goal=   None    Shift=    0.000
 GapD=    0.299 DampG=1.000 DampE=0.500 DampFc=0.5000 IDamp=-1.
 Damping current iteration by 5.00D-01
 RMSDP=4.47D-03 MaxDP=1.75D-01              OVMax= 1.86D-01

 Cycle   2  Pass 1  IDiag  1:
 RMSU=  2.23D-03    CP:  9.98D-01
 E= -2740.73514336156     Delta-E=       -0.025541739546 Rises=F Damp=T
 DIIS: error= 1.60D-02 at cycle   2 NSaved=   2.
 NSaved= 2 IEnMin= 2 EnMin= -2740.73514336156     IErMin= 2 ErrMin= 1.60D-02
 ErrMax= 1.60D-02  0.00D+00 EMaxC= 1.00D-01 BMatC= 2.45D-02 BMatP= 1.44D-01
 IDIUse=3 WtCom= 8.40D-01 WtEn= 1.60D-01
 Coeff-Com:  0.205D+00 0.795D+00
 Coeff-En:   0.364D+00 0.636D+00
 Coeff:      0.230D+00 0.770D+00
 Gap=     0.339 Goal=   None    Shift=    0.000
 RMSDP=1.34D-03 MaxDP=3.37D-02 DE=-2.55D-02 OVMax= 1.06D-01

 Cycle   3  Pass 1  IDiag  1:
 RMSU=  1.16D-03    CP:  9.98D-01  6.97D-01
 E= -2740.81197458877     Delta-E=       -0.076831227203 Rises=F Damp=F
 DIIS: error= 9.12D-03 at cycle   3 NSaved=   3.
 NSaved= 3 IEnMin= 3 EnMin= -2740.81197458877     IErMin= 3 ErrMin= 9.12D-03
 ErrMax= 9.12D-03  0.00D+00 EMaxC= 1.00D-01 BMatC= 5.76D-03 BMatP= 2.45D-02
 IDIUse=3 WtCom= 9.09D-01 WtEn= 9.12D-02
 Coeff-Com: -0.391D-01 0.299D+00 0.740D+00
 Coeff-En:   0.000D+00 0.000D+00 0.100D+01
 Coeff:     -0.355D-01 0.272D+00 0.763D+00
 Gap=     0.292 Goal=   None    Shift=    0.000
 RMSDP=5.64D-04 MaxDP=1.62D-02 DE=-7.68D-02 OVMax= 1.86D-02

 Cycle   4  Pass 1  IDiag  1:
 RMSU=  3.40D-04    CP:  9.98D-01  7.93D-01  6.58D-01
 E= -2740.81669394856     Delta-E=       -0.004719359788 Rises=F Damp=F
 DIIS: error= 1.59D-03 at cycle   4 NSaved=   4.
 NSaved= 4 IEnMin= 4 EnMin= -2740.81669394856     IErMin= 4 ErrMin= 1.59D-03
 ErrMax= 1.59D-03  0.00D+00 EMaxC= 1.00D-01 BMatC= 4.98D-04 BMatP= 5.76D-03
 IDIUse=3 WtCom= 9.84D-01 WtEn= 1.59D-02
 Coeff-Com: -0.154D-01 0.849D-01 0.330D+00 0.600D+00
 Coeff-En:   0.000D+00 0.000D+00 0.000D+00 0.100D+01
 Coeff:     -0.152D-01 0.835D-01 0.325D+00 0.607D+00
 Gap=     0.287 Goal=   None    Shift=    0.000
 RMSDP=1.81D-04 MaxDP=8.58D-03 DE=-4.72D-03 OVMax= 4.81D-03

 Cycle   5  Pass 1  IDiag  1:
 RMSU=  7.11D-05    CP:  9.98D-01  7.88D-01  7.35D-01  5.90D-01
 E= -2740.81715079277     Delta-E=       -0.000456844216 Rises=F Damp=F
 DIIS: error= 3.03D-04 at cycle   5 NSaved=   5.
 NSaved= 5 IEnMin= 5 EnMin= -2740.81715079277     IErMin= 5 ErrMin= 3.03D-04
 ErrMax= 3.03D-04  0.00D+00 EMaxC= 1.00D-01 BMatC= 1.62D-05 BMatP= 4.98D-04
 IDIUse=3 WtCom= 9.97D-01 WtEn= 3.03D-03
 Coeff-Com: -0.509D-02 0.203D-01 0.946D-01 0.244D+00 0.646D+00
 Coeff-En:   0.000D+00 0.000D+00 0.000D+00 0.000D+00 0.100D+01
 Coeff:     -0.507D-02 0.203D-01 0.943D-01 0.243D+00 0.647D+00
 Gap=     0.287 Goal=   None    Shift=    0.000
 RMSDP=3.42D-05 MaxDP=2.40D-03 DE=-4.57D-04 OVMax= 1.30D-03

 Cycle   6  Pass 1  IDiag  1:
 RMSU=  2.05D-05    CP:  9.98D-01  7.86D-01  7.33D-01  6.41D-01  7.13D-01
 E= -2740.81716838212     Delta-E=       -0.000017589343 Rises=F Damp=F
 DIIS: error= 8.19D-05 at cycle   6 NSaved=   6.
 NSaved= 6 IEnMin= 6 EnMin= -2740.81716838212     IErMin= 6 ErrMin= 8.19D-05
 ErrMax= 8.19D-05  0.00D+00 EMaxC= 1.00D-01 BMatC= 9.27D-07 BMatP= 1.62D-05
 IDIUse=1 WtCom= 1.00D+00 WtEn= 0.00D+00
 Coeff-Com: -0.973D-03 0.133D-02 0.863D-02 0.406D-01 0.245D+00 0.705D+00
 Coeff:     -0.973D-03 0.133D-02 0.863D-02 0.406D-01 0.245D+00 0.705D+00
 Gap=     0.287 Goal=   None    Shift=    0.000
 RMSDP=7.86D-06 MaxDP=5.14D-04 DE=-1.76D-05 OVMax= 2.56D-04

 Cycle   7  Pass 1  IDiag  1:
 RMSU=  3.00D-06    CP:  9.98D-01  7.86D-01  7.33D-01  6.42D-01  7.66D-01
                    CP:  7.11D-01
 E= -2740.81716950701     Delta-E=       -0.000001124898 Rises=F Damp=F
 DIIS: error= 7.74D-06 at cycle   7 NSaved=   7.
 NSaved= 7 IEnMin= 7 EnMin= -2740.81716950701     IErMin= 7 ErrMin= 7.74D-06
 ErrMax= 7.74D-06  0.00D+00 EMaxC= 1.00D-01 BMatC= 1.18D-08 BMatP= 9.27D-07
 IDIUse=1 WtCom= 1.00D+00 WtEn= 0.00D+00
 Coeff-Com: -0.119D-03-0.852D-04-0.131D-02-0.130D-02 0.236D-01 0.133D+00
 Coeff-Com:  0.846D+00
 Coeff:     -0.119D-03-0.852D-04-0.131D-02-0.130D-02 0.236D-01 0.133D+00
 Coeff:      0.846D+00
 Gap=     0.287 Goal=   None    Shift=    0.000
 RMSDP=9.05D-07 MaxDP=2.60D-05 DE=-1.12D-06 OVMax= 2.70D-05

 Cycle   8  Pass 1  IDiag  1:
 RMSU=  4.95D-07    CP:  9.98D-01  7.87D-01  7.33D-01  6.42D-01  7.69D-01
                    CP:  7.37D-01  8.75D-01
 E= -2740.81716952001     Delta-E=       -0.000000013000 Rises=F Damp=F
 DIIS: error= 1.16D-06 at cycle   8 NSaved=   8.
 NSaved= 8 IEnMin= 8 EnMin= -2740.81716952001     IErMin= 8 ErrMin= 1.16D-06
 ErrMax= 1.16D-06  0.00D+00 EMaxC= 1.00D-01 BMatC= 3.53D-10 BMatP= 1.18D-08
 IDIUse=1 WtCom= 1.00D+00 WtEn= 0.00D+00
 Coeff-Com: -0.189D-04-0.604D-04-0.642D-03-0.163D-02 0.701D-03 0.221D-01
 Coeff-Com:  0.248D+00 0.731D+00
 Coeff:     -0.189D-04-0.604D-04-0.642D-03-0.163D-02 0.701D-03 0.221D-01
 Coeff:      0.248D+00 0.731D+00
 Gap=     0.287 Goal=   None    Shift=    0.000
 RMSDP=1.86D-07 MaxDP=8.44D-06 DE=-1.30D-08 OVMax= 4.01D-06

 Cycle   9  Pass 1  IDiag  1:
 RMSU=  1.01D-07    CP:  9.98D-01  7.87D-01  7.33D-01  6.42D-01  7.69D-01
                    CP:  7.39D-01  9.03D-01  7.89D-01
 E= -2740.81716952043     Delta-E=       -0.000000000421 Rises=F Damp=F
 DIIS: error= 2.65D-07 at cycle   9 NSaved=   9.
 NSaved= 9 IEnMin= 9 EnMin= -2740.81716952043     IErMin= 9 ErrMin= 2.65D-07
 ErrMax= 2.65D-07  0.00D+00 EMaxC= 1.00D-01 BMatC= 1.60D-11 BMatP= 3.53D-10
 IDIUse=1 WtCom= 1.00D+00 WtEn= 0.00D+00
 Coeff-Com: -0.208D-05-0.105D-04-0.131D-03-0.435D-03-0.764D-03 0.918D-03
 Coeff-Com:  0.390D-01 0.216D+00 0.746D+00
 Coeff:     -0.208D-05-0.105D-04-0.131D-03-0.435D-03-0.764D-03 0.918D-03
 Coeff:      0.390D-01 0.216D+00 0.746D+00
 Gap=     0.287 Goal=   None    Shift=    0.000
 RMSDP=4.12D-08 MaxDP=1.92D-06 DE=-4.21D-10 OVMax= 1.01D-06

 Cycle  10  Pass 1  IDiag  1:
 RMSU=  2.61D-08    CP:  9.98D-01  7.87D-01  7.33D-01  6.42D-01  7.69D-01
                    CP:  7.39D-01  9.04D-01  8.17D-01  7.38D-01
 E= -2740.81716952045     Delta-E=       -0.000000000017 Rises=F Damp=F
 DIIS: error= 9.23D-08 at cycle  10 NSaved=  10.
 NSaved=10 IEnMin=10 EnMin= -2740.81716952045     IErMin=10 ErrMin= 9.23D-08
 ErrMax= 9.23D-08  0.00D+00 EMaxC= 1.00D-01 BMatC= 1.78D-12 BMatP= 1.60D-11
 IDIUse=1 WtCom= 1.00D+00 WtEn= 0.00D+00
 Coeff-Com: -0.151D-06-0.809D-07-0.208D-04-0.890D-04-0.351D-03-0.774D-03
 Coeff-Com:  0.351D-02 0.478D-01 0.291D+00 0.659D+00
 Coeff:     -0.151D-06-0.809D-07-0.208D-04-0.890D-04-0.351D-03-0.774D-03
 Coeff:      0.351D-02 0.478D-01 0.291D+00 0.659D+00
 Gap=     0.287 Goal=   None    Shift=    0.000
 RMSDP=1.18D-08 MaxDP=6.23D-07 DE=-1.68D-11 OVMax= 2.62D-07

 Cycle  11  Pass 1  IDiag  1:
 RMSU=  5.27D-09    CP:  9.98D-01  7.87D-01  7.33D-01  6.42D-01  7.69D-01
                    CP:  7.39D-01  9.04D-01  8.18D-01  7.99D-01  6.91D-01
 E= -2740.81716952046     Delta-E=       -0.000000000006 Rises=F Damp=F
 DIIS: error= 2.17D-08 at cycle  11 NSaved=  11.
 NSaved=11 IEnMin=11 EnMin= -2740.81716952046     IErMin=11 ErrMin= 2.17D-08
 ErrMax= 2.17D-08  0.00D+00 EMaxC= 1.00D-01 BMatC= 5.93D-14 BMatP= 1.78D-12
 IDIUse=1 WtCom= 1.00D+00 WtEn= 0.00D+00
 Coeff-Com: -0.115D-07 0.641D-06 0.180D-05 0.596D-05-0.430D-04-0.249D-03
 Coeff-Com: -0.144D-02-0.137D-02 0.218D-01 0.147D+00 0.835D+00
 Coeff:     -0.115D-07 0.641D-06 0.180D-05 0.596D-05-0.430D-04-0.249D-03
 Coeff:     -0.144D-02-0.137D-02 0.218D-01 0.147D+00 0.835D+00
 Gap=     0.287 Goal=   None    Shift=    0.000
 RMSDP=1.72D-09 MaxDP=8.09D-08 DE=-5.91D-12 OVMax= 6.40D-08

 Error on total polarization charges =  0.01328
 SCF Done:  E(RB3LYP) =  -2740.81716952     A.U. after   11 cycles
            NFock= 11  Conv=0.17D-08     -V/T= 2.0028
 KE= 2.733068161875D+03 PE=-8.559265364316D+03 EE= 2.074525732570D+03
 SMD-CDS (non-electrostatic) energy       (kcal/mol) =      -2.31
 (included in total energy above)
 Leave Link  502 at Wed Jun 24 01:11:53 2026, MaxMem=  1879048192 cpu:              38.1 elap:               5.4
 (Enter /CH/g16/l508.exe)
 QCSCF skips out because SCF is already converged.
 Leave Link  508 at Wed Jun 24 01:11:53 2026, MaxMem=  1879048192 cpu:               0.0 elap:               0.0
 (Enter /CH/g16/l601.exe)
 Copying SCF densities to generalized density rwf, IOpCl= 0 IROHF=0.

 **********************************************************************

            Population analysis using the SCF Density.

 **********************************************************************

 Orbital symmetries:
       Occupied  (A) (A) (A) (A) (A) (A) (A) (A) (A) (A) (A) (A)
                 (A) (A) (A) (A) (A) (A) (A) (A) (A) (A) (A) (A)
                 (A) (A) (A) (A) (A) (A) (A) (A) (A) (A) (A) (A)
                 (A) (A) (A) (A) (A) (A) (A) (A) (A) (A) (A) (A)
                 (A) (A) (A) (A) (A) (A) (A) (A) (A) (A) (A) (A)
                 (A) (A)
       Virtual   (A) (A) (A) (A) (A) (A) (A) (A) (A) (A) (A) (A)
                 (A) (A) (A) (A) (A) (A) (A) (A) (A) (A) (A) (A)
                 (A) (A) (A) (A) (A) (A) (A) (A) (A) (A) (A) (A)
                 (A) (A) (A) (A) (A) (A) (A) (A) (A) (A) (A) (A)
                 (A) (A) (A) (A) (A) (A) (A) (A) (A) (A) (A) (A)
                 (A) (A) (A) (A) (A) (A) (A) (A) (A) (A) (A) (A)
                 (A) (A) (A) (A) (A) (A) (A) (A) (A) (A) (A) (A)
                 (A) (A) (A) (A) (A) (A) (A) (A) (A) (A) (A) (A)
                 (A) (A) (A) (A) (A) (A) (A) (A) (A) (A) (A) (A)
 The electronic state is 1-A.
 Alpha  occ. eigenvalues -- -101.44065-101.43520-101.43489-101.43369 -66.12477
 Alpha  occ. eigenvalues --  -66.12111 -56.05146 -19.11096  -9.39506  -9.39001
 Alpha  occ. eigenvalues --   -9.38971  -9.38869  -7.16005  -7.15632  -7.15598
 Alpha  occ. eigenvalues --   -7.15505  -7.15477  -7.15374  -7.15106  -7.15100
 Alpha  occ. eigenvalues --   -7.15075  -7.15072  -7.14970  -7.14968  -5.28847
 Alpha  occ. eigenvalues --   -5.28475  -4.14429  -3.65205  -3.64968  -3.64944
 Alpha  occ. eigenvalues --   -3.64845  -3.64597  -3.64553  -2.70055  -2.70036
 Alpha  occ. eigenvalues --   -2.70035  -0.95392  -0.76869  -0.74980  -0.74686
 Alpha  occ. eigenvalues --   -0.74615  -0.56817  -0.48551  -0.41078  -0.40040
 Alpha  occ. eigenvalues --   -0.38652  -0.38415  -0.33693  -0.33338  -0.33128
 Alpha  occ. eigenvalues --   -0.32786  -0.32185  -0.29360  -0.28944  -0.28648
 Alpha  occ. eigenvalues --   -0.28143  -0.27979  -0.27748  -0.27314  -0.26046
 Alpha  occ. eigenvalues --   -0.26007  -0.25857
 Alpha virt. eigenvalues --    0.02827   0.06744   0.08236   0.08998   0.09794
 Alpha virt. eigenvalues --    0.10006   0.10604   0.11356   0.12046   0.12457
 Alpha virt. eigenvalues --    0.13301   0.13973   0.17175   0.22419   0.29692
 Alpha virt. eigenvalues --    0.30258   0.30942   0.31827   0.32523   0.34971
 Alpha virt. eigenvalues --    0.35594   0.39963   0.40287   0.40353   0.41817
 Alpha virt. eigenvalues --    0.43641   0.45176   0.47062   0.49244   0.50654
 Alpha virt. eigenvalues --    0.51272   0.51959   0.54860   0.55739   0.56909
 Alpha virt. eigenvalues --    0.58578   0.59233   0.61473   0.64467   0.66630
 Alpha virt. eigenvalues --    0.69263   0.70317   0.77545   0.80867   0.81003
 Alpha virt. eigenvalues --    0.81531   0.82866   0.83072   0.83168   0.83213
 Alpha virt. eigenvalues --    0.83385   0.83781   0.83936   0.85155   0.86255
 Alpha virt. eigenvalues --    0.86270   0.87134   0.87684   0.88330   0.89600
 Alpha virt. eigenvalues --    0.89893   0.91469   0.91993   0.94162   0.94770
 Alpha virt. eigenvalues --    0.98575   0.99603   0.99614   1.00748   1.01455
 Alpha virt. eigenvalues --    1.02451   1.04665   1.08465   1.10707   1.13829
 Alpha virt. eigenvalues --    1.15084   1.15704   1.17252   1.17696   1.30975
 Alpha virt. eigenvalues --    1.36624   1.38096   1.38493   1.38681   1.39340
 Alpha virt. eigenvalues --    1.40503   1.46224   1.50997   1.61022   1.61836
 Alpha virt. eigenvalues --    1.62615   1.72544   1.72806   1.73918   1.74739
 Alpha virt. eigenvalues --    1.78352   1.81017   2.00313   2.02103   2.18965
 Alpha virt. eigenvalues --    2.19382   2.19502   2.21830   2.68297   2.68675
 Alpha virt. eigenvalues --    2.77910   3.02082   3.17333
          Condensed to atoms (all electrons):
               1          2          3          4          5          6
     1  Si  11.862592   0.384898  -0.024835   0.356902   0.389397   0.379816
     2  O    0.384898   7.917631   0.376501  -0.017693  -0.016445  -0.017038
     3  Si  -0.024835   0.376501  11.915489   0.001781  -0.003616  -0.001346
     4  H    0.356902  -0.017693   0.001781   0.850524  -0.025325  -0.026999
     5  H    0.389397  -0.016445  -0.003616  -0.025325   0.799789  -0.027586
     6  H    0.379816  -0.017038  -0.001346  -0.026999  -0.027586   0.821563
     7  H    0.001838  -0.018454   0.350232   0.000261  -0.000114  -0.000107
     8  H   -0.003482  -0.016064   0.371815  -0.000100   0.002663  -0.000289
     9  H   -0.000956  -0.016821   0.375553  -0.000098  -0.000273   0.001130
    10  Al  -0.000154  -0.001042  -0.003628  -0.000042   0.000623   0.000329
    11  Cl   0.016453  -0.001629   0.023628   0.000234  -0.001279  -0.001275
    12  Cl  -0.000106   0.000004  -0.007923   0.000000   0.000333   0.000003
    13  Cl  -0.000002   0.000006   0.007356   0.000000  -0.000001   0.000000
    14  Cl   0.000006  -0.000000  -0.000000   0.000000  -0.000001  -0.000000
               7          8          9         10         11         12
     1  Si   0.001838  -0.003482  -0.000956  -0.000154   0.016453  -0.000106
     2  O   -0.018454  -0.016064  -0.016821  -0.001042  -0.001629   0.000004
     3  Si   0.350232   0.371815   0.375553  -0.003628   0.023628  -0.007923
     4  H    0.000261  -0.000100  -0.000098  -0.000042   0.000234   0.000000
     5  H   -0.000114   0.002663  -0.000273   0.000623  -0.001279   0.000333
     6  H   -0.000107  -0.000289   0.001130   0.000329  -0.001275   0.000003
     7  H    0.860773  -0.024742  -0.026811  -0.000158   0.000223   0.000016
     8  H   -0.024742   0.797660  -0.024901   0.006011  -0.006034   0.013804
     9  H   -0.026811  -0.024901   0.813300   0.002138  -0.001688   0.000064
    10  Al  -0.000158   0.006011   0.002138  11.034656   0.309211   0.333616
    11  Cl   0.000223  -0.006034  -0.001688   0.309211  17.086275  -0.013062
    12  Cl   0.000016   0.013804   0.000064   0.333616  -0.013062  17.093917
    13  Cl  -0.000036  -0.004226   0.001446   0.332772  -0.013053  -0.013388
    14  Cl   0.000000   0.000010  -0.000000   0.342316  -0.013718  -0.013694
              13         14
     1  Si  -0.000002   0.000006
     2  O    0.000006  -0.000000
     3  Si   0.007356  -0.000000
     4  H    0.000000   0.000000
     5  H   -0.000001  -0.000001
     6  H    0.000000  -0.000000
     7  H   -0.000036   0.000000
     8  H   -0.004226   0.000010
     9  H    0.001446  -0.000000
    10  Al   0.332772   0.342316
    11  Cl  -0.013053  -0.013718
    12  Cl  -0.013388  -0.013694
    13  Cl  17.099698  -0.013860
    14  Cl  -0.013860  17.087541
 Mulliken charges:
               1
     1  Si   0.637634
     2  O   -0.573855
     3  Si   0.618993
     4  H   -0.139445
     5  H   -0.118167
     6  H   -0.128200
     7  H   -0.142921
     8  H   -0.112127
     9  H   -0.122083
    10  Al   0.643353
    11  Cl  -0.384285
    12  Cl  -0.393584
    13  Cl  -0.396713
    14  Cl  -0.388600
 Sum of Mulliken charges =  -1.00000
 Mulliken charges with hydrogens summed into heavy atoms:
               1
     1  Si   0.251822
     2  O   -0.573855
     3  Si   0.241862
    10  Al   0.643353
    11  Cl  -0.384285
    12  Cl  -0.393584
    13  Cl  -0.396713
    14  Cl  -0.388600
 Electronic spatial extent (au):  <R**2>=           3790.4471
 Charge=             -1.0000 electrons
 Dipole moment (field-independent basis, Debye):
    X=             -5.2331    Y=             -0.0100    Z=              0.0486  Tot=              5.2333
 Quadrupole moment (field-independent basis, Debye-Ang):
   XX=           -128.9931   YY=           -109.1664   ZZ=           -109.3884
   XY=              2.6602   XZ=              0.0293   YZ=             -0.0367
 Traceless Quadrupole moment (field-independent basis, Debye-Ang):
   XX=            -13.1438   YY=              6.6829   ZZ=              6.4609
   XY=              2.6602   XZ=              0.0293   YZ=             -0.0367
 Octapole moment (field-independent basis, Debye-Ang**2):
  XXX=              6.3848  YYY=            -11.6928  ZZZ=            -10.6134  XYY=             -3.4346
  XXY=              3.4072  XXZ=              5.0473  XZZ=             -3.1401  YZZ=              2.8843
  YYZ=              4.8113  XYZ=              1.7295
 Hexadecapole moment (field-independent basis, Debye-Ang**3):
 XXXX=          -3873.2677 YYYY=          -1097.4580 ZZZZ=           -672.0579 XXXY=             43.0302
 XXXZ=             40.2403 YYYX=             -0.4825 YYYZ=             -1.1649 ZZZX=            -18.2526
 ZZZY=              1.4580 XXYY=           -808.9191 XXZZ=           -701.6794 YYZZ=           -297.1319
 XXYZ=             -4.7409 YYXZ=             10.2267 ZZXY=             -5.4472
 N-N= 1.010854300350D+03 E-N=-8.559265365404D+03  KE= 2.733068161875D+03
 No NMR shielding tensors so no spin-rotation constants.
 Leave Link  601 at Wed Jun 24 01:11:53 2026, MaxMem=  1879048192 cpu:               0.3 elap:               0.1
 (Enter /CH/g16/l701.exe)
 ... and contract with generalized density number  0.
 Compute integral first derivatives.
 R6Disp: Adding Grimme-D3(BJ) dispersion energy 1st derivatives to the gradient.
   1 Symmetry operations used in ECPInt.
 ECPInt:  NShTT=    3240 NPrTT=   14388 LenC2=    2967 LenP2D=    8815.
 LDataN:  DoStor=T MaxTD1= 5 Len=  102
 D1PCM: PCM CHGder 1st derivatives, ID1Alg=3 FixD1E=F DoIter=F DoCFld=F I1PDM=0.
 GePol: Maximum number of non-zero 1st derivatives   =     385
 Leave Link  701 at Wed Jun 24 01:11:53 2026, MaxMem=  1879048192 cpu:               3.2 elap:               0.5
 (Enter /CH/g16/l702.exe)
 L702 exits ... SP integral derivatives will be done elsewhere.
 Leave Link  702 at Wed Jun 24 01:11:53 2026, MaxMem=  1879048192 cpu:               0.0 elap:               0.0
 (Enter /CH/g16/l703.exe)
 Integral derivatives from FoFJK, PRISM(SPDF).
 Compute integral first derivatives, UseDBF=F ICtDFT=           0.
 Calling FoFJK, ICntrl=      2127 FMM=F ISym2X=0 I1Cent= 0 IOpClX= 0 NMat=1 NMatS=1 NMatT=0.
 FoFJK:  IHMeth= 1 ICntrl=    2127 DoSepK=F KAlg= 0 I1Cent=           0 FoldK=F
 IRaf=         0 NMat=       1 IRICut=       1 DoRegI=T DoRafI=F ISym2E= 0 IDoP0=0 IntGTp=1.
 FoFCou: FMM=F IPFlag=           0 FMFlag=      100000 FMFlg1=         800
         NFxFlg=           0 DoJE=F BraDBF=F KetDBF=F FulRan=T
         wScrn=  0.000000 ICntrl=      2127 IOpCl=  0 I1Cent=           0 NGrid=           0
         NMat0=    1 NMatS0=      1 NMatT0=    0 NMatD0=    1 NMtDS0=    0 NMtDT0=    0
 Symmetry not used in FoFCou.
 Leave Link  703 at Wed Jun 24 01:11:54 2026, MaxMem=  1879048192 cpu:               5.8 elap:               0.8
 (Enter /CH/g16/l716.exe)
 Dipole        =-2.05884229D+00-3.94142548D-03 1.91268924D-02
 ***** Axes restored to original set *****
 -------------------------------------------------------------------
 Center     Atomic                   Forces (Hartrees/Bohr)
 Number     Number              X              Y              Z
 -------------------------------------------------------------------
      1       14           0.000107109   -0.000071318   -0.000177132
      2        8          -0.000077264    0.000018984    0.000009825
      3       14          -0.000173919   -0.000765788    0.000424326
      4        1          -0.000001653   -0.000065511    0.000179408
      5        1          -0.000123969   -0.000181018    0.000011698
      6        1          -0.000125208    0.000473565   -0.000236894
      7        1          -0.000118088   -0.000118475   -0.000154323
      8        1           0.000050354    0.000353829   -0.000107396
      9        1           0.000159400    0.000426713    0.000007093
     10       13          -0.000037115    0.000177063   -0.000012174
     11       17           0.000086883   -0.000180239    0.000179596
     12       17           0.000023120    0.000132849   -0.000271471
     13       17           0.000096249   -0.000083795   -0.000014226
     14       17           0.000134103   -0.000116858    0.000161672
 -------------------------------------------------------------------
 Cartesian Forces:  Max     0.000765788 RMS     0.000212794
 Leave Link  716 at Wed Jun 24 01:11:54 2026, MaxMem=  1879048192 cpu:               0.0 elap:               0.0
 (Enter /CH/g16/l103.exe)

 GradGradGradGradGradGradGradGradGradGradGradGradGradGradGradGradGradGrad
 Berny optimization.
 FormGI is forming the generalized inverse of G from B-inverse, IUseBI=4.
 Internal  Forces:  Max     0.000368163 RMS     0.000163145
 Search for a local minimum.
 Step number   1 out of a maximum of  100
 All quantities printed in internal units (Hartrees-Bohrs-Radians)
 RMS Force = .16314D-03 SwitMx=.10000D-02 MixMth= 2
 Mixed Optimization -- En-DIIS/RFO-DIIS
 Second derivative matrix not updated -- first step.
 ITU=  0
     Eigenvalues ---    0.00731   0.01109   0.01379   0.01618   0.01794
     Eigenvalues ---    0.02884   0.03628   0.04290   0.06046   0.06260
     Eigenvalues ---    0.07444   0.08339   0.08614   0.08978   0.09934
     Eigenvalues ---    0.10373   0.12312   0.12537   0.12977   0.13972
     Eigenvalues ---    0.14762   0.15657   0.16394   0.16659   0.17158
     Eigenvalues ---    0.17216   0.17343   0.17359   0.18053   0.18884
     Eigenvalues ---    0.20382   0.20986   0.21035   0.21086   0.38000
     Eigenvalues ---    0.40558
 RFO step:  Lambda=-2.95418138D-05 EMin= 7.30960639D-03
 Linear search not attempted -- first point.
 Iteration  1 RMS(Cart)=  0.00604389 RMS(Int)=  0.00001343
 Iteration  2 RMS(Cart)=  0.00001380 RMS(Int)=  0.00000397
 Iteration  3 RMS(Cart)=  0.00000000 RMS(Int)=  0.00000397
 ITry= 1 IFail=0 DXMaxC= 2.22D-02 DCOld= 1.00D+10 DXMaxT= 3.00D-01 DXLimC= 3.00D+00 Rises=F
 Variable       Old X    -DE/DX   Delta X   Delta X   Delta X     New X
                                 (Linear)    (Quad)   (Total)
    R1        3.13579   0.00013   0.00000   0.00025   0.00025   3.13605
    R2        2.81960   0.00002   0.00000   0.00013   0.00013   2.81972
    R3        2.81365   0.00001   0.00000   0.00004   0.00004   2.81369
    R4        2.81086   0.00035   0.00000   0.00216   0.00216   2.81302
    R5        3.14640   0.00007   0.00000   0.00011   0.00011   3.14652
    R6        2.82203  -0.00000   0.00000  -0.00003  -0.00003   2.82200
    R7        2.80671  -0.00018   0.00000  -0.00045  -0.00045   2.80626
    R8        2.80638  -0.00016   0.00000  -0.00070  -0.00070   2.80568
    R9        6.09545  -0.00010   0.00000  -0.00852  -0.00852   6.08693
   R10        6.26124  -0.00011   0.00000  -0.01068  -0.01068   6.25056
   R11        6.00009  -0.00007   0.00000  -0.00190  -0.00189   5.99820
   R12        6.24669  -0.00002   0.00000  -0.00840  -0.00840   6.23830
   R13        4.11299  -0.00016   0.00000  -0.00096  -0.00096   4.11203
   R14        4.08610  -0.00023   0.00000  -0.00125  -0.00125   4.08485
   R15        4.08646   0.00009   0.00000   0.00042   0.00042   4.08688
   R16        4.08808  -0.00022   0.00000  -0.00102  -0.00102   4.08706
    A1        1.86903  -0.00018   0.00000  -0.00015  -0.00016   1.86887
    A2        1.94926  -0.00034   0.00000  -0.00412  -0.00412   1.94514
    A3        1.93679   0.00037   0.00000   0.00386   0.00385   1.94065
    A4        1.89709   0.00004   0.00000  -0.00014  -0.00014   1.89695
    A5        1.88698   0.00011   0.00000   0.00184   0.00183   1.88881
    A6        1.92245   0.00001   0.00000  -0.00113  -0.00113   1.92132
    A7        2.53056  -0.00007   0.00000  -0.00206  -0.00206   2.52851
    A8        1.85911   0.00022   0.00000   0.00334   0.00334   1.86245
    A9        1.93255  -0.00016   0.00000  -0.00354  -0.00354   1.92901
   A10        1.94245  -0.00023   0.00000  -0.00392  -0.00392   1.93853
   A11        1.89367   0.00009   0.00000   0.00190   0.00191   1.89558
   A12        1.88920  -0.00003   0.00000  -0.00032  -0.00031   1.88889
   A13        1.94370   0.00013   0.00000   0.00279   0.00277   1.94647
   A14        1.55956  -0.00028   0.00000  -0.00185  -0.00186   1.55771
   A15        2.01092  -0.00001   0.00000   0.00046   0.00045   2.01137
   A16        2.62502  -0.00012   0.00000   0.00064   0.00063   2.62565
   A17        1.52886   0.00014   0.00000   0.00217   0.00217   1.53103
   A18        1.26600   0.00007   0.00000   0.00079   0.00079   1.26679
   A19        1.26388  -0.00020   0.00000  -0.00311  -0.00312   1.26077
   A20        1.91014  -0.00027   0.00000  -0.00219  -0.00219   1.90795
   A21        1.90664   0.00001   0.00000   0.00053   0.00053   1.90717
   A22        1.88947   0.00017   0.00000   0.00125   0.00125   1.89071
   A23        1.92207   0.00016   0.00000   0.00114   0.00114   1.92321
   A24        1.92056  -0.00012   0.00000  -0.00102  -0.00102   1.91954
   A25        1.91460   0.00006   0.00000   0.00029   0.00029   1.91488
   A26        1.36548   0.00011   0.00000   0.00163   0.00163   1.36711
   A27        2.68496   0.00006   0.00000  -0.00080  -0.00080   2.68416
   A28        1.57047  -0.00005   0.00000  -0.00021  -0.00021   1.57026
   A29        3.15547   0.00024   0.00000   0.00204   0.00204   3.15751
   A30        3.19346  -0.00003   0.00000  -0.00214  -0.00214   3.19132
    D1        2.75573  -0.00032   0.00000  -0.00484  -0.00484   2.75088
    D2        0.68073  -0.00006   0.00000  -0.00223  -0.00223   0.67850
    D3       -1.47169  -0.00009   0.00000  -0.00060  -0.00060  -1.47229
    D4        1.17763   0.00006   0.00000   0.00029   0.00028   1.17791
    D5       -3.06073   0.00011   0.00000   0.00338   0.00338  -3.05735
    D6       -0.99011   0.00023   0.00000   0.00366   0.00366  -0.98645
    D7       -2.72920  -0.00019   0.00000  -0.00182  -0.00182  -2.73103
    D8       -0.67355  -0.00004   0.00000   0.00051   0.00051  -0.67304
    D9        1.49836  -0.00016   0.00000  -0.00131  -0.00131   1.49705
   D10        1.61874  -0.00002   0.00000   0.00234   0.00234   1.62108
   D11        1.20003  -0.00021   0.00000   0.00058   0.00059   1.20062
   D12       -2.63003   0.00021   0.00000   0.00550   0.00550  -2.62454
   D13       -3.04874   0.00002   0.00000   0.00375   0.00375  -3.04499
   D14       -0.55246   0.00031   0.00000   0.00799   0.00800  -0.54447
   D15       -0.97117   0.00012   0.00000   0.00624   0.00625  -0.96492
   D16       -1.17353   0.00007   0.00000   0.00003   0.00003  -1.17350
   D17        3.07232  -0.00005   0.00000  -0.00161  -0.00161   3.07070
   D18        0.99208  -0.00021   0.00000  -0.00541  -0.00542   0.98666
   D19       -1.16700   0.00024   0.00000   0.00271   0.00271  -1.16429
   D20       -0.03478   0.00030   0.00000   0.00694   0.00694  -0.02784
   D21       -0.70799  -0.00018   0.00000  -0.00363  -0.00363  -0.71162
   D22        1.34320  -0.00009   0.00000  -0.00180  -0.00180   1.34140
   D23        1.17196   0.00021   0.00000   0.00281   0.00281   1.17476
   D24       -1.55900   0.00017   0.00000   0.00438   0.00438  -1.55462
   D25       -0.41283  -0.00011   0.00000  -0.00333  -0.00333  -0.41616
   D26        0.67655  -0.00002   0.00000   0.00113   0.00112   0.67768
   D27        0.58351   0.00012   0.00000   0.00059   0.00058   0.58409
   D28        1.67289   0.00022   0.00000   0.00504   0.00503   1.67792
   D29       -1.52214   0.00009   0.00000   0.00020   0.00020  -1.52194
   D30       -0.43276   0.00019   0.00000   0.00465   0.00465  -0.42811
   D31        2.67689  -0.00008   0.00000  -0.00118  -0.00118   2.67571
   D32       -2.51691   0.00001   0.00000   0.00327   0.00327  -2.51365
         Item               Value     Threshold  Converged?
 Maximum Force            0.000368     0.000450     YES
 RMS     Force            0.000163     0.000300     YES
 Maximum Displacement     0.022196     0.001800     NO 
 RMS     Displacement     0.006045     0.001200     NO 
 Predicted change in Energy=-1.479739D-05
 Lowest energy point so far.  Saving SCF results.
 GradGradGradGradGradGradGradGradGradGradGradGradGradGradGradGradGradGrad

 Leave Link  103 at Wed Jun 24 01:11:54 2026, MaxMem=  1879048192 cpu:               0.0 elap:               0.0
 (Enter /CH/g16/l202.exe)
                          Input orientation:                          
 ---------------------------------------------------------------------
 Center     Atomic      Atomic             Coordinates (Angstroms)
 Number     Number       Type             X           Y           Z
 ---------------------------------------------------------------------
      1         14           0        3.494566    1.321586    0.011317
      2          8           0        3.341781   -0.328746   -0.072862
      3         14           0        2.273441   -1.603349    0.007611
      4          1           0        4.914997    1.612772    0.363521
      5          1           0        2.614154    1.896813    1.065327
      6          1           0        3.201174    1.956853   -1.302551
      7          1           0        3.070339   -2.808341    0.385782
      8          1           0        1.252522   -1.361430    1.058539
      9          1           0        1.645557   -1.857746   -1.313518
     10         13           0       -1.535095    0.079006    0.012156
     11         17           0        0.123405    1.055093   -1.003508
     12         17           0       -1.259997    0.241996    2.149983
     13         17           0       -1.606803   -2.001269   -0.574804
     14         17           0       -3.367799    1.066210   -0.574554
 ---------------------------------------------------------------------
                    Distance matrix (angstroms):
                    1          2          3          4          5
     1  Si   0.000000
     2  O    1.659525   0.000000
     3  Si   3.169606   1.665064   0.000000
     4  H    1.492133   2.536716   4.177071   0.000000
     5  H    1.488942   2.603465   3.672327   2.422207   0.000000
     6  H    1.488588   2.599205   3.905413   2.414825   2.440296
     7  H    4.168512   2.536223   1.493341   4.790563   4.775810
     8  H    3.649933   2.590658   1.485008   4.768926   3.531323
     9  H    3.909242   2.598893   1.484702   5.054324   4.549044
    10  Al   5.180877   4.894630   4.163566   6.639245   4.650791
    11  Cl   3.530668   3.624783   3.565436   5.013893   3.345505
    12  Cl   5.324028   5.142290   4.525510   6.572749   4.350166
    13  Cl   6.116279   5.247644   3.943836   7.515027   5.975078
    14  Cl   6.892061   6.871393   6.268097   8.353647   6.258024
                    6          7          8          9         10
     6  H    0.000000
     7  H    5.057140   0.000000
     8  H    4.514753   2.418804   0.000000
     9  H    4.119615   2.412728   2.455089   0.000000
    10  Al   5.261844   5.448522   3.307655   3.952842   0.000000
    11  Cl   3.221065   5.053778   3.371429   3.301164   2.175992
    12  Cl   5.895997   5.582900   3.174111   4.984677   2.161608
    13  Cl   6.270007   4.842494   3.354541   3.338285   2.162686
    14  Cl   6.668929   7.575223   5.468801   5.850583   2.162777
                   11         12         13         14
    11  Cl   0.000000
    12  Cl   3.538282   0.000000
    13  Cl   3.538186   3.546403   0.000000
    14  Cl   3.517475   3.541928   3.537023   0.000000
 Stoichiometry    AlCl4H6OSi2(1-)
 Framework group  C1[X(AlCl4H6OSi2)]
 Deg. of freedom    36
 Full point group                 C1      NOp   1
 RotChk:  IX=0 Diff= 3.79D-03
 Largest Abelian subgroup         C1      NOp   1
 Largest concise Abelian subgroup C1      NOp   1
                         Standard orientation:                         
 ---------------------------------------------------------------------
 Center     Atomic      Atomic             Coordinates (Angstroms)
 Number     Number       Type             X           Y           Z
 ---------------------------------------------------------------------
      1         14           0       -3.490939   -1.323538    0.008784
      2          8           0       -3.339270    0.327105   -0.071204
      3         14           0       -2.271741    1.602200    0.012163
      4          1           0       -4.911050   -1.616565    0.360750
      5          1           0       -2.609767   -1.900895    1.060994
      6          1           0       -3.197604   -1.955230   -1.306820
      7          1           0       -3.069295    2.805690    0.393719
      8          1           0       -1.250282    1.358253    1.062097
      9          1           0       -1.644502    1.860409   -1.308534
     10         13           0        1.537903   -0.077650    0.011007
     11         17           0       -0.120322   -1.052214   -1.006567
     12         17           0        1.263686   -0.246319    2.148507
     13         17           0        1.608030    2.004176   -0.570624
     14         17           0        3.371044   -1.062133   -0.578900
 ---------------------------------------------------------------------
 Rotational constants (GHZ):           0.8524407           0.3259177           0.2987940
 Leave Link  202 at Wed Jun 24 01:11:54 2026, MaxMem=  1879048192 cpu:               0.0 elap:               0.0
 (Enter /CH/g16/l301.exe)
 Standard basis: def2SVP (5D, 7F)
 Ernie: Thresh=  0.10000D-02 Tol=  0.10000D-05 Strict=F.
 There are   178 symmetry adapted cartesian basis functions of A   symmetry.
 There are   170 symmetry adapted basis functions of A   symmetry.
   170 basis functions,   326 primitive gaussians,   178 cartesian basis functions
    62 alpha electrons       62 beta electrons
       nuclear repulsion energy      1011.5031199843 Hartrees.
 IExCor=  402 DFT=T Ex+Corr=B3LYP ExCW=0 ScaHFX=  0.200000
 ScaDFX=  0.800000  0.720000  1.000000  0.810000 ScalE2=  1.000000  1.000000
 IRadAn=      5 IRanWt=     -1 IRanGd=            0 ICorTp=0 IEmpDi=141
 NAtoms=   14 NActive=   14 NUniq=   14 SFac= 1.00D+00 NAtFMM=   60 NAOKFM=F Big=F
 Integral buffers will be    131072 words long.
 Raffenetti 2 integral format.
 Two-electron integral symmetry is turned on.
 R6Disp:  Grimme-D3(BJ) Dispersion energy=       -0.0351600654 Hartrees.
 Nuclear repulsion after empirical dispersion term =     1011.4679599188 Hartrees.
 ------------------------------------------------------------------------------
 Polarizable Continuum Model (PCM)
 =================================
 Model                : PCM.
 Atomic radii         : SMD-Coulomb.
 Polarization charges : Total charges.
 Charge compensation  : None.
 Solution method      : On-the-fly selection.
 Cavity type          : VdW (van der Waals Surface) (Alpha=1.000).
 Cavity algorithm     : GePol (No added spheres)
                        Default sphere list used, NSphG=   14.
                        Lebedev-Laikov grids with approx.  5.0 points / Ang**2.
                        Smoothing algorithm: York/Karplus (Gamma=1.0000).
                        Polarization charges: spherical gaussians, with
                                              point-specific exponents (IZeta= 3).
                        Self-potential: point-specific (ISelfS= 7).
                        Self-field    : sphere-specific E.n sum rule (ISelfD= 2).
 1st derivatives      : Analytical E(r).r(x)/FMM algorithm (CHGder, D1EAlg=3).
                        Cavity 1st derivative terms included.
 Solvent              : TetraHydroFuran, Eps=   7.425700 Eps(inf)=   1.974025
 ------------------------------------------------------------------------------
 Spheres list:
 ISph  on   Nord     Re0    Alpha      Xe            Ye            Ze
    1  Si      1    2.4700  1.000     -3.490939     -1.323538      0.008784
    2   O      2    2.2940  1.000     -3.339270      0.327105     -0.071204
    3  Si      3    2.4700  1.000     -2.271741      1.602200      0.012163
    4   H      4    1.2000  1.000     -4.911050     -1.616565      0.360750
    5   H      5    1.2000  1.000     -2.609767     -1.900895      1.060994
    6   H      6    1.2000  1.000     -3.197604     -1.955230     -1.306820
    7   H      7    1.2000  1.000     -3.069295      2.805690      0.393719
    8   H      8    1.2000  1.000     -1.250282      1.358253      1.062097
    9   H      9    1.2000  1.000     -1.644502      1.860409     -1.308534
   10  Al     10    2.3000  1.000      1.537903     -0.077650      0.011007
   11  Cl     11    2.3800  1.000     -0.120322     -1.052214     -1.006567
   12  Cl     12    2.3800  1.000      1.263686     -0.246319      2.148507
   13  Cl     13    2.3800  1.000      1.608030      2.004176     -0.570624
   14  Cl     14    2.3800  1.000      3.371044     -1.062133     -0.578900
 ------------------------------------------------------------------------------
 GePol: Number of generator spheres                  =      14
 GePol: Total number of spheres                      =      14
 GePol: Number of exposed spheres                    =      14 (100.00%)
 GePol: Number of points                             =    1933
 GePol: Average weight of points                     =       0.14
 GePol: Minimum weight of points                     =   0.44D-08
 GePol: Maximum weight of points                     =    0.19536
 GePol: Number of points with low weight             =      60
 GePol: Fraction of low-weight points (<1% of avg)   =       3.10%
 GePol: Cavity surface area                          =    277.487 Ang**2
 GePol: Cavity volume                                =    307.125 Ang**3
 ------------------------------------------------------------------------------
 Atomic radii for non-electrostatic terms: SMD-CDS.
 ------------------------------------------------------------------------------
 PCM non-electrostatic energy =        -0.0036772494 Hartrees.
 Nuclear repulsion after PCM non-electrostatic terms =     1011.4642826695 Hartrees.
 Leave Link  301 at Wed Jun 24 01:11:54 2026, MaxMem=  1879048192 cpu:               0.1 elap:               0.0
 (Enter /CH/g16/l302.exe)
 NPDir=0 NMtPBC=     1 NCelOv=     1 NCel=       1 NClECP=     1 NCelD=      1
         NCelK=      1 NCelE2=     1 NClLst=     1 CellRange=     0.0.
 One-electron integrals computed using PRISM.
 One-electron integral symmetry used in STVInt
   1 Symmetry operations used in ECPInt.
 ECPInt:  NShTT=    3240 NPrTT=   14388 LenC2=    2967 LenP2D=    8817.
 LDataN:  DoStor=T MaxTD1= 4 Len=   56
 NBasis=   170 RedAO= T EigKep=  9.39D-03  NBF=   170
 NBsUse=   170 1.00D-06 EigRej= -1.00D+00 NBFU=   170
 Precomputing XC quadrature grid using
 IXCGrd= 4 IRadAn=           5 IRanWt=          -1 IRanGd=           0 AccXCQ= 0.00D+00.
 Generated NRdTot=       0 NPtTot=           0 NUsed=           0 NTot=          32
 NSgBfM=   175   175   175   175   175 MxSgAt=    14 MxSgA2=    14.
 Leave Link  302 at Wed Jun 24 01:11:54 2026, MaxMem=  1879048192 cpu:               0.4 elap:               0.1
 (Enter /CH/g16/l303.exe)
 DipDrv:  MaxL=1.
 Leave Link  303 at Wed Jun 24 01:11:54 2026, MaxMem=  1879048192 cpu:               0.0 elap:               0.0
 (Enter /CH/g16/l401.exe)
 Initial guess from the checkpoint file:  "disiloxane_cpx.chk"
 B after Tr=     0.000000    0.000000   -0.000000
         Rot=    0.999997   -0.002481    0.000020   -0.000384 Ang=  -0.29 deg.
 Guess basis will be translated and rotated to current coordinates.
 JPrj=2 DoOrth=T DoCkMO=T.
 Generating alternative initial guess.
 ExpMin= 5.44D-02 ExpMax= 1.04D+04 ExpMxC= 1.57D+03 IAcc=3 IRadAn=         5 AccDes= 0.00D+00
 Harris functional with IExCor=  402 and IRadAn=       5 diagonalized for initial guess.
 HarFok:  IExCor=  402 AccDes= 0.00D+00 IRadAn=         5 IDoV= 1 UseB2=F ITyADJ=14
 ICtDFT=  3500011 ScaDFX=  1.000000  1.000000  1.000000  1.000000
 FoFCou: FMM=F IPFlag=           0 FMFlag=      100000 FMFlg1=           0
         NFxFlg=           0 DoJE=T BraDBF=F KetDBF=T FulRan=T
         wScrn=  0.000000 ICntrl=       500 IOpCl=  0 I1Cent=   200000004 NGrid=           0
         NMat0=    1 NMatS0=      1 NMatT0=    0 NMatD0=    1 NMtDS0=    0 NMtDT0=    0
 Petite list used in FoFCou.
 Harris En= -2740.41270663189    
 Leave Link  401 at Wed Jun 24 01:11:55 2026, MaxMem=  1879048192 cpu:               1.7 elap:               0.3
 (Enter /CH/g16/l502.exe)
 Integral symmetry usage will be decided dynamically.
 Closed shell SCF:
 Using DIIS extrapolation, IDIIS=  1040.
 NGot=  1879048192 LenX=  1878981132 LenY=  1878949007
 Requested convergence on RMS density matrix=1.00D-08 within  32 cycles.
 Requested convergence on MAX density matrix=1.00D-06.
 Requested convergence on             energy=1.00D-06.
 No special actions if energy rises.
 Fock matrices will be formed incrementally for  20 cycles.

 Cycle   1  Pass 1  IDiag  1:
 FoFJK:  IHMeth= 1 ICntrl=       0 DoSepK=F KAlg= 0 I1Cent=           0 FoldK=F
 IRaf= 860000000 NMat=       1 IRICut=       1 DoRegI=T DoRafI=F ISym2E= 0 IDoP0=0 IntGTp=1.
 FoFCou: FMM=F IPFlag=           0 FMFlag=      100000 FMFlg1=           0
         NFxFlg=           0 DoJE=F BraDBF=F KetDBF=F FulRan=T
         wScrn=  0.000000 ICntrl=         0 IOpCl=  0 I1Cent=           0 NGrid=           0
         NMat0=    1 NMatS0=      1 NMatT0=    0 NMatD0=    1 NMtDS0=    0 NMtDT0=    0
 Symmetry not used in FoFCou.
 Inv3:  Mode=1 IEnd=    11209467.
 Iteration    1 A*A^-1 deviation from unit magnitude is 2.89D-15 for    750.
 Iteration    1 A*A^-1 deviation from orthogonality  is 1.58D-15 for   1000    765.
 Iteration    1 A^-1*A deviation from unit magnitude is 2.89D-15 for    750.
 Iteration    1 A^-1*A deviation from orthogonality  is 2.89D-15 for   1481     32.
 E= -2740.81716823387    
 DIIS: error= 2.62D-04 at cycle   1 NSaved=   1.
 NSaved= 1 IEnMin= 1 EnMin= -2740.81716823387     IErMin= 1 ErrMin= 2.62D-04
 ErrMax= 2.62D-04  0.00D+00 EMaxC= 1.00D-01 BMatC= 1.32D-05 BMatP= 1.32D-05
 IDIUse=3 WtCom= 9.97D-01 WtEn= 2.62D-03
 Coeff-Com:  0.100D+01
 Coeff-En:   0.100D+01
 Coeff:      0.100D+01
 Gap=     0.482 Goal=   None    Shift=    0.000
 RMSDP=3.86D-05 MaxDP=7.04D-04              OVMax= 1.20D-03

 Cycle   2  Pass 1  IDiag  1:
 RMSU=  3.86D-05    CP:  1.00D+00
 E= -2740.81718801626     Delta-E=       -0.000019782393 Rises=F Damp=F
 DIIS: error= 3.48D-05 at cycle   2 NSaved=   2.
 NSaved= 2 IEnMin= 2 EnMin= -2740.81718801626     IErMin= 2 ErrMin= 3.48D-05
 ErrMax= 3.48D-05  0.00D+00 EMaxC= 1.00D-01 BMatC= 1.44D-07 BMatP= 1.32D-05
 IDIUse=1 WtCom= 1.00D+00 WtEn= 0.00D+00
 Coeff-Com: -0.421D-01 0.104D+01
 Coeff:     -0.421D-01 0.104D+01
 Gap=     0.287 Goal=   None    Shift=    0.000
 RMSDP=4.68D-06 MaxDP=1.37D-04 DE=-1.98D-05 OVMax= 1.86D-04

 Cycle   3  Pass 1  IDiag  1:
 RMSU=  3.69D-06    CP:  1.00D+00  1.07D+00
 E= -2740.81718819118     Delta-E=       -0.000000174924 Rises=F Damp=F
 DIIS: error= 4.85D-05 at cycle   3 NSaved=   3.
 NSaved= 3 IEnMin= 3 EnMin= -2740.81718819118     IErMin= 2 ErrMin= 3.48D-05
 ErrMax= 4.85D-05  0.00D+00 EMaxC= 1.00D-01 BMatC= 1.48D-07 BMatP= 1.44D-07
 IDIUse=1 WtCom= 1.00D+00 WtEn= 0.00D+00
 Coeff-Com: -0.296D-01 0.555D+00 0.475D+00
 Coeff:     -0.296D-01 0.555D+00 0.475D+00
 Gap=     0.287 Goal=   None    Shift=    0.000
 RMSDP=2.20D-06 MaxDP=1.01D-04 DE=-1.75D-07 OVMax= 7.82D-05

 Cycle   4  Pass 1  IDiag  1:
 RMSU=  1.53D-06    CP:  1.00D+00  1.08D+00  5.79D-01
 E= -2740.81718829388     Delta-E=       -0.000000102698 Rises=F Damp=F
 DIIS: error= 1.46D-05 at cycle   4 NSaved=   4.
 NSaved= 4 IEnMin= 4 EnMin= -2740.81718829388     IErMin= 4 ErrMin= 1.46D-05
 ErrMax= 1.46D-05  0.00D+00 EMaxC= 1.00D-01 BMatC= 1.38D-08 BMatP= 1.44D-07
 IDIUse=1 WtCom= 1.00D+00 WtEn= 0.00D+00
 Coeff-Com: -0.451D-02 0.440D-01 0.237D+00 0.723D+00
 Coeff:     -0.451D-02 0.440D-01 0.237D+00 0.723D+00
 Gap=     0.287 Goal=   None    Shift=    0.000
 RMSDP=6.44D-07 MaxDP=2.53D-05 DE=-1.03D-07 OVMax= 2.25D-05

 Cycle   5  Pass 1  IDiag  1:
 RMSU=  4.31D-07    CP:  1.00D+00  1.08D+00  6.73D-01  7.92D-01
 E= -2740.81718830473     Delta-E=       -0.000000010847 Rises=F Damp=F
 DIIS: error= 1.02D-06 at cycle   5 NSaved=   5.
 NSaved= 5 IEnMin= 5 EnMin= -2740.81718830473     IErMin= 5 ErrMin= 1.02D-06
 ErrMax= 1.02D-06  0.00D+00 EMaxC= 1.00D-01 BMatC= 3.63D-10 BMatP= 1.38D-08
 IDIUse=1 WtCom= 1.00D+00 WtEn= 0.00D+00
 Coeff-Com: -0.332D-04-0.156D-01 0.538D-01 0.250D+00 0.712D+00
 Coeff:     -0.332D-04-0.156D-01 0.538D-01 0.250D+00 0.712D+00
 Gap=     0.287 Goal=   None    Shift=    0.000
 RMSDP=1.49D-07 MaxDP=7.02D-06 DE=-1.08D-08 OVMax= 3.37D-06

 Cycle   6  Pass 1  IDiag  1:
 RMSU=  7.98D-08    CP:  1.00D+00  1.08D+00  6.88D-01  8.31D-01  7.76D-01
 E= -2740.81718830512     Delta-E=       -0.000000000393 Rises=F Damp=F
 DIIS: error= 1.97D-07 at cycle   6 NSaved=   6.
 NSaved= 6 IEnMin= 6 EnMin= -2740.81718830512     IErMin= 6 ErrMin= 1.97D-07
 ErrMax= 1.97D-07  0.00D+00 EMaxC= 1.00D-01 BMatC= 1.27D-11 BMatP= 3.63D-10
 IDIUse=1 WtCom= 1.00D+00 WtEn= 0.00D+00
 Coeff-Com:  0.142D-03-0.738D-02 0.107D-01 0.668D-01 0.249D+00 0.681D+00
 Coeff:      0.142D-03-0.738D-02 0.107D-01 0.668D-01 0.249D+00 0.681D+00
 Gap=     0.287 Goal=   None    Shift=    0.000
 RMSDP=3.39D-08 MaxDP=1.44D-06 DE=-3.93D-10 OVMax= 7.39D-07

 Cycle   7  Pass 1  IDiag  1:
 RMSU=  1.86D-08    CP:  1.00D+00  1.08D+00  6.87D-01  8.36D-01  8.01D-01
                    CP:  6.87D-01
 E= -2740.81718830512     Delta-E=       -0.000000000001 Rises=F Damp=F
 DIIS: error= 6.95D-08 at cycle   7 NSaved=   7.
 NSaved= 7 IEnMin= 7 EnMin= -2740.81718830512     IErMin= 7 ErrMin= 6.95D-08
 ErrMax= 6.95D-08  0.00D+00 EMaxC= 1.00D-01 BMatC= 8.71D-13 BMatP= 1.27D-11
 IDIUse=1 WtCom= 1.00D+00 WtEn= 0.00D+00
 Coeff-Com:  0.550D-04-0.192D-02 0.995D-03 0.115D-01 0.541D-01 0.256D+00
 Coeff-Com:  0.679D+00
 Coeff:      0.550D-04-0.192D-02 0.995D-03 0.115D-01 0.541D-01 0.256D+00
 Coeff:      0.679D+00
 Gap=     0.287 Goal=   None    Shift=    0.000
 RMSDP=9.00D-09 MaxDP=4.74D-07 DE=-1.36D-12 OVMax= 2.52D-07

 Error on total polarization charges =  0.01327
 SCF Done:  E(RB3LYP) =  -2740.81718831     A.U. after    7 cycles
            NFock=  7  Conv=0.90D-08     -V/T= 2.0028
 KE= 2.733069398516D+03 PE=-8.560496644228D+03 EE= 2.075145774738D+03
 SMD-CDS (non-electrostatic) energy       (kcal/mol) =      -2.31
 (included in total energy above)
 Leave Link  502 at Wed Jun 24 01:11:59 2026, MaxMem=  1879048192 cpu:              26.0 elap:               3.8
 (Enter /CH/g16/l508.exe)
 QCSCF skips out because SCF is already converged.
 Leave Link  508 at Wed Jun 24 01:11:59 2026, MaxMem=  1879048192 cpu:               0.0 elap:               0.0
 (Enter /CH/g16/l701.exe)
 ... and contract with generalized density number  0.
 Compute integral first derivatives.
 R6Disp: Adding Grimme-D3(BJ) dispersion energy 1st derivatives to the gradient.
   1 Symmetry operations used in ECPInt.
 ECPInt:  NShTT=    3240 NPrTT=   14388 LenC2=    2967 LenP2D=    8817.
 LDataN:  DoStor=T MaxTD1= 5 Len=  102
 D1PCM: PCM CHGder 1st derivatives, ID1Alg=3 FixD1E=F DoIter=F DoCFld=F I1PDM=0.
 GePol: Maximum number of non-zero 1st derivatives   =     384
 Leave Link  701 at Wed Jun 24 01:11:59 2026, MaxMem=  1879048192 cpu:               3.3 elap:               0.5
 (Enter /CH/g16/l702.exe)
 L702 exits ... SP integral derivatives will be done elsewhere.
 Leave Link  702 at Wed Jun 24 01:11:59 2026, MaxMem=  1879048192 cpu:               0.0 elap:               0.0
 (Enter /CH/g16/l703.exe)
 Integral derivatives from FoFJK, PRISM(SPDF).
 Compute integral first derivatives, UseDBF=F ICtDFT=           0.
 Calling FoFJK, ICntrl=      2127 FMM=F ISym2X=0 I1Cent= 0 IOpClX= 0 NMat=1 NMatS=1 NMatT=0.
 FoFJK:  IHMeth= 1 ICntrl=    2127 DoSepK=F KAlg= 0 I1Cent=           0 FoldK=F
 IRaf=         0 NMat=       1 IRICut=       1 DoRegI=T DoRafI=F ISym2E= 0 IDoP0=0 IntGTp=1.
 FoFCou: FMM=F IPFlag=           0 FMFlag=      100000 FMFlg1=         800
         NFxFlg=           0 DoJE=F BraDBF=F KetDBF=F FulRan=T
         wScrn=  0.000000 ICntrl=      2127 IOpCl=  0 I1Cent=           0 NGrid=           0
         NMat0=    1 NMatS0=      1 NMatT0=    0 NMatD0=    1 NMtDS0=    0 NMtDT0=    0
 Symmetry not used in FoFCou.
 Leave Link  703 at Wed Jun 24 01:12:00 2026, MaxMem=  1879048192 cpu:               5.8 elap:               0.8
 (Enter /CH/g16/l716.exe)
 Dipole        =-2.05333598D+00 1.48905332D-03 1.49276336D-02
 ***** Axes restored to original set *****
 -------------------------------------------------------------------
 Center     Atomic                   Forces (Hartrees/Bohr)
 Number     Number              X              Y              Z
 -------------------------------------------------------------------
      1       14          -0.000198402   -0.000073774    0.000059299
      2        8           0.000320741    0.000046943   -0.000199394
      3       14          -0.000226199   -0.000351714    0.000202184
      4        1          -0.000003537   -0.000034285    0.000025381
      5        1          -0.000058517    0.000000639    0.000002225
      6        1           0.000068456    0.000128980    0.000049925
      7        1          -0.000046693   -0.000012861   -0.000071905
      8        1          -0.000041746    0.000132023   -0.000069295
      9        1          -0.000016717    0.000231272   -0.000003222
     10       13           0.000001478    0.000106803   -0.000013650
     11       17           0.000092902   -0.000102058    0.000013822
     12       17           0.000025873    0.000045846   -0.000044525
     13       17           0.000054511   -0.000021664   -0.000015414
     14       17           0.000027850   -0.000096152    0.000064568
 -------------------------------------------------------------------
 Cartesian Forces:  Max     0.000351714 RMS     0.000117180
 Leave Link  716 at Wed Jun 24 01:12:00 2026, MaxMem=  1879048192 cpu:               0.0 elap:               0.0
 (Enter /CH/g16/l103.exe)

 GradGradGradGradGradGradGradGradGradGradGradGradGradGradGradGradGradGrad
 Berny optimization.
 Using GEDIIS/GDIIS optimizer.
 FormGI is forming the generalized inverse of G from B-inverse, IUseBI=4.
 Internal  Forces:  Max     0.000224241 RMS     0.000078819
 Search for a local minimum.
 Step number   2 out of a maximum of  100
 All quantities printed in internal units (Hartrees-Bohrs-Radians)
 RMS Force = .78819D-04 SwitMx=.10000D-02 MixMth= 2
 Mixed Optimization -- En-DIIS/RFO-DIIS
 Swapping is turned off.
 Update second derivatives using D2CorX and points    1    2
 DE= -1.88D-05 DEPred=-1.48D-05 R= 1.27D+00
 TightC=F SS=  1.41D+00  RLast= 2.86D-02 DXNew= 5.0454D-01 8.5700D-02
 Trust test= 1.27D+00 RLast= 2.86D-02 DXMaxT set to 3.00D-01
 ITU=  1  0
     Eigenvalues ---    0.00676   0.00914   0.01355   0.01526   0.01802
     Eigenvalues ---    0.02882   0.03118   0.04089   0.06030   0.06247
     Eigenvalues ---    0.06798   0.08371   0.08820   0.08979   0.09878
     Eigenvalues ---    0.10512   0.12202   0.12592   0.13160   0.14161
     Eigenvalues ---    0.14639   0.15593   0.16391   0.16796   0.17156
[...]
 ! A17   A(3,9,11)              89.7857         -DE/DX =    0.0                 !
 ! A18   A(8,10,11)             75.5068         -DE/DX =    0.0                 !
 ! A19   A(8,10,13)             69.522          -DE/DX =    0.0                 !
 ! A20   A(11,10,12)           109.3685         -DE/DX =    0.0                 !
 ! A21   A(11,10,13)           108.9829         -DE/DX =    0.0                 !
 ! A22   A(11,10,14)           108.6628         -DE/DX =    0.0                 !
 ! A23   A(12,10,13)           110.3486         -DE/DX =    0.0                 !
 ! A24   A(12,10,14)           109.6343         -DE/DX =    0.0                 !
 ! A25   A(13,10,14)           109.8143         -DE/DX =    0.0                 !
 ! A26   A(6,11,9)              83.702          -DE/DX =    0.0                 !
 ! A27   A(6,11,10)            138.6961         -DE/DX =    0.0                 !
 ! A28   A(9,11,10)             93.6881         -DE/DX =    0.0                 !
 ! A29   L(8,10,14,11,-1)      184.1696         -DE/DX =    0.0                 !
 ! A30   L(8,10,14,11,-2)      181.5377         -DE/DX =    0.0                 !
 ! D1    D(4,1,2,3)            138.5574         -DE/DX =    0.0                 !
 ! D2    D(5,1,2,3)             19.5925         -DE/DX =    0.0                 !
 ! D3    D(6,1,2,3)           -103.7827         -DE/DX =    0.0                 !
 ! D4    D(2,1,6,11)            66.2666         -DE/DX =    0.0                 !
 ! D5    D(4,1,6,11)          -176.4547         -DE/DX =    0.0                 !
 ! D6    D(5,1,6,11)           -57.5614         -DE/DX =    0.0                 !
 ! D7    D(1,2,3,7)           -141.7182         -DE/DX =    0.0                 !
 ! D8    D(1,2,3,8)            -23.352          -DE/DX =    0.0                 !
 ! D9    D(1,2,3,9)            100.443          -DE/DX =    0.0                 !
 ! D10   D(2,3,8,10)            84.6919         -DE/DX =    0.0                 !
 ! D11   D(2,3,8,12)            48.6433         -DE/DX =    0.0                 !
 ! D12   D(7,3,8,10)          -158.0022         -DE/DX =    0.0                 !
 ! D13   D(7,3,8,12)           165.9492         -DE/DX =    0.0                 !
 ! D14   D(9,3,8,10)           -38.9377         -DE/DX =    0.0                 !
 ! D15   D(9,3,8,12)           -74.9864         -DE/DX =    0.0                 !
 ! D16   D(2,3,9,11)           -63.0343         -DE/DX =    0.0                 !
 ! D17   D(7,3,9,11)           179.7056         -DE/DX =    0.0                 !
 ! D18   D(8,3,9,11)            60.1812         -DE/DX =    0.0                 !
 ! D19   D(1,6,11,9)           -58.9173         -DE/DX =    0.0                 !
 ! D20   D(1,6,11,10)           29.5033         -DE/DX =    0.0                 !
 ! D21   D(3,8,10,11)          -27.3152         -DE/DX =    0.0                 !
 ! D22   D(3,8,10,13)           89.761          -DE/DX =    0.0                 !
 ! D23   D(3,9,11,6)            58.0117         -DE/DX =    0.0                 !
 ! D24   D(3,9,11,10)          -80.599          -DE/DX =    0.0                 !
 ! D25   D(8,10,11,6)          -50.5376         -DE/DX =    0.0                 !
 ! D26   D(8,10,11,9)           34.1158         -DE/DX =    0.0                 !
 ! D27   D(12,10,11,6)           8.2763         -DE/DX =    0.0                 !
 ! D28   D(12,10,11,9)          92.9297         -DE/DX =    0.0                 !
 ! D29   D(13,10,11,6)        -112.4353         -DE/DX =    0.0                 !
 ! D30   D(13,10,11,9)         -27.7818         -DE/DX =    0.0                 !
 ! D31   D(14,10,11,6)         127.9247         -DE/DX =    0.0                 !
 ! D32   D(14,10,11,9)        -147.4219         -DE/DX =    0.0                 !
 --------------------------------------------------------------------------------
 Largest change from initial coordinates is atom   12       0.110 Angstoms.
 GradGradGradGradGradGradGradGradGradGradGradGradGradGradGradGradGradGrad

 Leave Link  103 at Wed Jun 24 01:15:19 2026, MaxMem=  1879048192 cpu:               0.0 elap:               0.0
 (Enter /CH/g16/l202.exe)
                          Input orientation:                          
 ---------------------------------------------------------------------
 Center     Atomic      Atomic             Coordinates (Angstroms)
 Number     Number       Type             X           Y           Z
 ---------------------------------------------------------------------
      1         14           0        3.322680    1.305539    0.094376
      2          8           0        3.306755   -0.327434   -0.216832
      3         14           0        2.325556   -1.667518   -0.084079
      4          1           0        4.666958    1.637461    0.653075
      5          1           0        2.282115    1.673890    1.092480
      6          1           0        3.141646    2.088681   -1.157882
      7          1           0        3.196832   -2.814134    0.311424
      8          1           0        1.303495   -1.454213    0.971575
      9          1           0        1.693889   -1.995814   -1.387501
     10         13           0       -1.420638    0.157645   -0.002040
     11         17           0        0.139607    0.867038   -1.341452
     12         17           0       -0.865971    0.596815    2.041307
     13         17           0       -1.665084   -1.973371   -0.273280
     14         17           0       -3.265600    1.174864   -0.488732
 ---------------------------------------------------------------------
                    Distance matrix (angstroms):
                    1          2          3          4          5
     1  Si   0.000000
     2  O    1.662439   0.000000
     3  Si   3.140886   1.666193   0.000000
     4  H    1.493119   2.543168   4.116849   0.000000
     5  H    1.488177   2.601823   3.542765   2.425259   0.000000
     6  H    1.488030   2.598161   3.991000   2.410341   2.444376
     7  H    4.127306   2.544566   1.493410   4.700500   4.646409
     8  H    3.530271   2.587469   1.484760   4.579605   3.279839
     9  H    3.968356   2.599095   1.485157   5.118963   4.468002
    10  Al   4.881190   4.757067   4.167964   6.299037   4.148175
    11  Cl   3.519351   3.566841   3.575379   5.006855   3.341463
    12  Cl   4.673075   4.833743   4.453124   5.798573   3.459886
    13  Cl   5.980318   5.237507   4.006813   7.347857   5.545105
    14  Cl   6.615324   6.747346   6.285213   8.027652   5.790198
                    6          7          8          9         10
     6  H    0.000000
     7  H    5.118544   0.000000
     8  H    4.523879   2.422789   0.000000
     9  H    4.339565   2.411397   2.451730   0.000000
    10  Al   5.087171   5.500070   3.311634   4.032018   0.000000
    11  Cl   3.246282   5.062574   3.477490   3.257888   2.175231
    12  Cl   5.340549   5.579735   3.171377   5.003132   2.162358
    13  Cl   6.355111   4.968601   3.260621   3.539024   2.162072
    14  Cl   6.506583   7.636451   5.470025   5.954621   2.162287
                   11         12         13         14
    11  Cl   0.000000
    12  Cl   3.539388   0.000000
    13  Cl   3.530698   3.549894   0.000000
    14  Cl   3.523822   3.534608   3.538284   0.000000
 Stoichiometry    AlCl4H6OSi2(1-)
 Framework group  C1[X(AlCl4H6OSi2)]
 Deg. of freedom    36
 Full point group                 C1      NOp   1
 RotChk:  IX=0 Diff= 6.96D-16
 Largest Abelian subgroup         C1      NOp   1
 Largest concise Abelian subgroup C1      NOp   1
                         Standard orientation:                         
 ---------------------------------------------------------------------
 Center     Atomic      Atomic             Coordinates (Angstroms)
 Number     Number       Type             X           Y           Z
 ---------------------------------------------------------------------
      1         14           0       -3.210609   -1.401387    0.021368
      2          8           0       -3.260787    0.248261   -0.178249
      3         14           0       -2.334102    1.614615    0.046546
      4          1           0       -4.539708   -1.824263    0.554357
      5          1           0       -2.154747   -1.794498    0.993627
      6          1           0       -2.999890   -2.089798   -1.280907
      7          1           0       -3.250263    2.695769    0.517747
      8          1           0       -1.302888    1.371417    1.086720
      9          1           0       -1.717882    2.055773   -1.230695
     10         13           0        1.482572   -0.059770    0.009764
     11         17           0       -0.049659   -0.738774   -1.376905
     12         17           0        0.948732   -0.658588    2.017804
     13         17           0        1.640753    2.092846   -0.115847
     14         17           0        3.366303   -0.966582   -0.542263
 ---------------------------------------------------------------------
 Rotational constants (GHZ):           0.8430723           0.3447835           0.3132506
 Leave Link  202 at Wed Jun 24 01:15:19 2026, MaxMem=  1879048192 cpu:               0.0 elap:               0.0
 (Enter /CH/g16/l601.exe)
 Copying SCF densities to generalized density rwf, IOpCl= 0 IROHF=0.

 **********************************************************************

            Population analysis using the SCF Density.

 **********************************************************************

 Orbital symmetries:
       Occupied  (A) (A) (A) (A) (A) (A) (A) (A) (A) (A) (A) (A)
                 (A) (A) (A) (A) (A) (A) (A) (A) (A) (A) (A) (A)
                 (A) (A) (A) (A) (A) (A) (A) (A) (A) (A) (A) (A)
                 (A) (A) (A) (A) (A) (A) (A) (A) (A) (A) (A) (A)
                 (A) (A) (A) (A) (A) (A) (A) (A) (A) (A) (A) (A)
                 (A) (A)
       Virtual   (A) (A) (A) (A) (A) (A) (A) (A) (A) (A) (A) (A)
                 (A) (A) (A) (A) (A) (A) (A) (A) (A) (A) (A) (A)
                 (A) (A) (A) (A) (A) (A) (A) (A) (A) (A) (A) (A)
                 (A) (A) (A) (A) (A) (A) (A) (A) (A) (A) (A) (A)
                 (A) (A) (A) (A) (A) (A) (A) (A) (A) (A) (A) (A)
                 (A) (A) (A) (A) (A) (A) (A) (A) (A) (A) (A) (A)
                 (A) (A) (A) (A) (A) (A) (A) (A) (A) (A) (A) (A)
                 (A) (A) (A) (A) (A) (A) (A) (A) (A) (A) (A) (A)
                 (A) (A) (A) (A) (A) (A) (A) (A) (A) (A) (A) (A)
 The electronic state is 1-A.
 Alpha  occ. eigenvalues -- -101.44066-101.43548-101.43453-101.43387 -66.12327
 Alpha  occ. eigenvalues --  -66.12069 -56.05129 -19.11020  -9.39511  -9.39025
 Alpha  occ. eigenvalues --   -9.38937  -9.38888  -7.16005  -7.15639  -7.15604
 Alpha  occ. eigenvalues --   -7.15528  -7.15443  -7.15393  -7.15129  -7.15126
 Alpha  occ. eigenvalues --   -7.15040  -7.15038  -7.14988  -7.14988  -5.28708
 Alpha  occ. eigenvalues --   -5.28455  -4.14413  -3.65065  -3.64827  -3.64820
 Alpha  occ. eigenvalues --   -3.64803  -3.64575  -3.64536  -2.70038  -2.70021
 Alpha  occ. eigenvalues --   -2.70017  -0.95307  -0.76879  -0.74986  -0.74682
 Alpha  occ. eigenvalues --   -0.74624  -0.56530  -0.48608  -0.40895  -0.40043
 Alpha  occ. eigenvalues --   -0.38672  -0.38314  -0.33620  -0.33284  -0.33144
 Alpha  occ. eigenvalues --   -0.32701  -0.32281  -0.29574  -0.28734  -0.28541
 Alpha  occ. eigenvalues --   -0.28120  -0.27947  -0.27841  -0.27326  -0.26021
 Alpha  occ. eigenvalues --   -0.25999  -0.25858
 Alpha virt. eigenvalues --    0.02858   0.06897   0.08290   0.09188   0.09867
 Alpha virt. eigenvalues --    0.10041   0.10381   0.11137   0.12096   0.12626
 Alpha virt. eigenvalues --    0.13440   0.14028   0.17235   0.22711   0.29896
 Alpha virt. eigenvalues --    0.30331   0.30918   0.32116   0.32267   0.35254
 Alpha virt. eigenvalues --    0.36258   0.39915   0.40303   0.40732   0.42157
 Alpha virt. eigenvalues --    0.43318   0.44998   0.47217   0.49106   0.50832
 Alpha virt. eigenvalues --    0.51254   0.51883   0.54771   0.56012   0.57142
 Alpha virt. eigenvalues --    0.58484   0.59033   0.61319   0.64828   0.66357
 Alpha virt. eigenvalues --    0.69863   0.70450   0.76986   0.80892   0.81003
 Alpha virt. eigenvalues --    0.81308   0.82873   0.83071   0.83167   0.83315
 Alpha virt. eigenvalues --    0.83346   0.83875   0.84205   0.85333   0.86225
 Alpha virt. eigenvalues --    0.86309   0.87047   0.87603   0.88098   0.89761
 Alpha virt. eigenvalues --    0.90096   0.91241   0.93009   0.94064   0.95556
 Alpha virt. eigenvalues --    0.98820   0.99242   1.00073   1.00748   1.01517
 Alpha virt. eigenvalues --    1.02093   1.04178   1.09584   1.10486   1.14114
 Alpha virt. eigenvalues --    1.15289   1.15744   1.17314   1.17881   1.31265
 Alpha virt. eigenvalues --    1.36277   1.36663   1.38180   1.38597   1.39124
 Alpha virt. eigenvalues --    1.40090   1.46953   1.51664   1.60126   1.60870
 Alpha virt. eigenvalues --    1.62743   1.72387   1.72821   1.74628   1.75151
 Alpha virt. eigenvalues --    1.78632   1.80023   2.00654   2.02071   2.18788
 Alpha virt. eigenvalues --    2.19303   2.20105   2.21883   2.68947   2.69644
 Alpha virt. eigenvalues --    2.77617   3.04797   3.16015
          Condensed to atoms (all electrons):
               1          2          3          4          5          6
     1  Si  11.883177   0.381984  -0.026104   0.354159   0.386350   0.374297
     2  O    0.381984   7.923851   0.376770  -0.018056  -0.015988  -0.016523
     3  Si  -0.026104   0.376770  11.914377   0.001605  -0.005005  -0.000425
     4  H    0.354159  -0.018056   0.001605   0.855642  -0.024672  -0.027389
     5  H    0.386350  -0.015988  -0.005005  -0.024672   0.792263  -0.025577
     6  H    0.374297  -0.016523  -0.000425  -0.027389  -0.025577   0.825314
     7  H    0.001525  -0.018406   0.351802   0.000314  -0.000122  -0.000094
     8  H   -0.004852  -0.016160   0.377653  -0.000096   0.003711  -0.000261
     9  H   -0.000155  -0.016772   0.373210  -0.000105  -0.000247   0.000732
    10  Al  -0.001330  -0.001237  -0.002782  -0.000060   0.000805   0.000629
    11  Cl   0.019944  -0.001848   0.023173   0.000248  -0.003181  -0.001626
    12  Cl  -0.003231   0.000010  -0.007494   0.000009   0.007865   0.000026
    13  Cl  -0.000014   0.000006   0.005455   0.000000  -0.000005   0.000000
    14  Cl   0.000008  -0.000000   0.000002   0.000000  -0.000003   0.000000
               7          8          9         10         11         12
     1  Si   0.001525  -0.004852  -0.000155  -0.001330   0.019944  -0.003231
     2  O   -0.018406  -0.016160  -0.016772  -0.001237  -0.001848   0.000010
     3  Si   0.351802   0.377653   0.373210  -0.002782   0.023173  -0.007494
     4  H    0.000314  -0.000096  -0.000105  -0.000060   0.000248   0.000009
     5  H   -0.000122   0.003711  -0.000247   0.000805  -0.003181   0.007865
     6  H   -0.000094  -0.000261   0.000732   0.000629  -0.001626   0.000026
     7  H    0.857603  -0.024523  -0.027563  -0.000094   0.000200   0.000019
     8  H   -0.024523   0.790746  -0.024633   0.004373  -0.005635   0.012422
     9  H   -0.027563  -0.024633   0.817308   0.002504  -0.001167   0.000066
    10  Al  -0.000094   0.004373   0.002504  11.032410   0.309566   0.329108
    11  Cl   0.000200  -0.005635  -0.001167   0.309566  17.083075  -0.012796
    12  Cl   0.000019   0.012422   0.000066   0.329108  -0.012796  17.094932
    13  Cl  -0.000007  -0.002400   0.000179   0.333446  -0.013377  -0.013185
    14  Cl   0.000000   0.000010   0.000000   0.344022  -0.013484  -0.013811
              13         14
     1  Si  -0.000014   0.000008
     2  O    0.000006  -0.000000
     3  Si   0.005455   0.000002
     4  H    0.000000   0.000000
     5  H   -0.000005  -0.000003
     6  H    0.000000   0.000000
     7  H   -0.000007   0.000000
     8  H   -0.002400   0.000010
     9  H    0.000179   0.000000
    10  Al   0.333446   0.344022
    11  Cl  -0.013377  -0.013484
    12  Cl  -0.013185  -0.013811
    13  Cl  17.101761  -0.013877
    14  Cl  -0.013877  17.083860
 Mulliken charges:
               1
     1  Si   0.634243
     2  O   -0.577632
     3  Si   0.617762
     4  H   -0.141600
     5  H   -0.116196
     6  H   -0.129105
     7  H   -0.140653
     8  H   -0.110356
     9  H   -0.123359
    10  Al   0.648641
    11  Cl  -0.383092
    12  Cl  -0.393940
    13  Cl  -0.397984
    14  Cl  -0.386727
 Sum of Mulliken charges =  -1.00000
 Mulliken charges with hydrogens summed into heavy atoms:
               1
     1  Si   0.247341
     2  O   -0.577632
     3  Si   0.243393
    10  Al   0.648641
    11  Cl  -0.383092
    12  Cl  -0.393940
    13  Cl  -0.397984
    14  Cl  -0.386727
 Electronic spatial extent (au):  <R**2>=           3636.5283
 Charge=             -1.0000 electrons
 Dipole moment (field-independent basis, Debye):
    X=             -4.8946    Y=              0.0326    Z=              0.1482  Tot=              4.8970
 Quadrupole moment (field-independent basis, Debye-Ang):
   XX=           -128.4961   YY=           -109.0266   ZZ=           -109.3374
   XY=              1.7943   XZ=             -0.3057   YZ=              0.1519
 Traceless Quadrupole moment (field-independent basis, Debye-Ang):
   XX=            -12.8761   YY=              6.5934   ZZ=              6.2826
   XY=              1.7943   XZ=             -0.3057   YZ=              0.1519
 Octapole moment (field-independent basis, Debye-Ang**2):
  XXX=              6.3337  YYY=            -13.0469  ZZZ=             -7.6497  XYY=             -4.1922
  XXY=              3.9982  XXZ=              5.3589  XZZ=              0.6531  YZZ=              6.0828
  YYZ=              0.9744  XYZ=              0.6652
 Hexadecapole moment (field-independent basis, Debye-Ang**3):
 XXXX=          -3618.8449 YYYY=          -1117.2647 ZZZZ=           -668.3912 XXXY=             30.0918
 XXXZ=             42.0412 YYYX=             -7.5525 YYYZ=             -2.9042 ZZZX=             -9.4161
 ZZZY=              2.2278 XXYY=           -777.8306 XXZZ=           -656.5940 YYZZ=           -301.4098
 XXYZ=             -5.2003 YYXZ=              5.5818 ZZXY=             -0.1757
 N-N= 1.020373899950D+03 E-N=-8.578395304176D+03  KE= 2.733075580620D+03
 No NMR shielding tensors so no spin-rotation constants.
 Leave Link  601 at Wed Jun 24 01:15:19 2026, MaxMem=  1879048192 cpu:               0.3 elap:               0.1
 (Enter /CH/g16/l9999.exe)
 Unable to Open any file for archive entry.
 1\1\GINC-NODE0-CHCLUSTER\FOpt\RB3LYP\def2SVP\Al1Cl4H6O1Si2(1-)\LS\24-J
 un-2026\0\\#p B3LYP/def2SVP EmpiricalDispersion=GD3BJ opt=(maxcycles=2
 00) scf=xqc SCRF=(SMD,Solvent=Tetrahydrofuran) int=ultrafine\\disiloxa
 ne+AlCl4(-) restart\\-1,1\Si,3.322679592,1.3055387769,0.0943758833\O,3
 .3067548621,-0.3274335507,-0.2168324777\Si,2.3255558771,-1.6675177155,
 -0.0840790958\H,4.6669584735,1.6374613835,0.6530754243\H,2.2821147463,
 1.6738900992,1.0924802673\H,3.1416462526,2.0886806581,-1.1578815971\H,
 3.1968323412,-2.8141340316,0.3114244002\H,1.3034952505,-1.4542133379,0
 .9715748375\H,1.6938888064,-1.995813845,-1.3875012918\Al,-1.4206382741
 ,0.1576452722,-0.0020397465\Cl,0.1396073722,0.8670384999,-1.3414516923
 \Cl,-0.8659713871,0.5968151662,2.0413067599\Cl,-1.665084058,-1.9733709
 453,-0.2732799413\Cl,-3.2655998545,1.17486357,-0.48873173\\Version=ES6
 4L-G16RevC.02\State=1-A\HF=-2740.8177234\RMSD=7.751e-09\RMSF=2.468e-05
 \Dipole=1.9235361,-0.0942064,0.0547276\Quadrupole=-9.44302,4.7871301,4
 .6558899,1.893323,0.3320398,-0.1114224\PG=C01 [X(Al1Cl4H6O1Si2)]\\@
 The archive entry for this job was punched.


 SCIENCE AT ITS BEST PROVIDES US WITH BETTER QUESTIONS, 
 NOT ABSOLUTE ANSWERS

                                    -- NORMAN COUSINS, 1976
 Job cpu time:       0 days  0 hours 23 minutes 30.3 seconds.
 Elapsed time:       0 days  0 hours  3 minutes 27.1 seconds.
 File lengths (MBytes):  RWF=    141 Int=      0 D2E=      0 Chk=      6 Scr=      1
 Normal termination of Gaussian 16 at Wed Jun 24 01:15:19 2026.
