 Entering Gaussian System, Link 0=/CH/g16/g16
 Initial command:
 /CH/g16/l1.exe "/tmp/g16d3_disiloxane_2884047/Gau-2884060.inp" -scrdir="/tmp/g16d3_disiloxane_2884047/"
 Default is to use a total of  96 processors:
                               96 via shared-memory
                                1 via Linda
 Entering Link 1 = /CH/g16/l1.exe PID=   2884066.
  
 Copyright (c) 1988-2021, Gaussian, Inc.  All Rights Reserved.
  
 This is part of the Gaussian(R) 16 program.  It is based on
 the Gaussian(R) 09 system (copyright 2009, Gaussian, Inc.),
 the Gaussian(R) 03 system (copyright 2003, Gaussian, Inc.),
 the Gaussian(R) 98 system (copyright 1998, Gaussian, Inc.),
 the Gaussian(R) 94 system (copyright 1995, Gaussian, Inc.),
 the Gaussian 92(TM) system (copyright 1992, Gaussian, Inc.),
 the Gaussian 90(TM) system (copyright 1990, Gaussian, Inc.),
 the Gaussian 88(TM) system (copyright 1988, Gaussian, Inc.),
 the Gaussian 86(TM) system (copyright 1986, Carnegie Mellon
 University), and the Gaussian 82(TM) system (copyright 1983,
 Carnegie Mellon University). Gaussian is a federally registered
 trademark of Gaussian, Inc.
  
 This software contains proprietary and confidential information,
 including trade secrets, belonging to Gaussian, Inc.
  
 This software is provided under written license and may be
 used, copied, transmitted, or stored only in accord with that
 written license.
  
 The following legend is applicable only to US Government
 contracts under FAR:
  
                    RESTRICTED RIGHTS LEGEND
  
 Use, reproduction and disclosure by the US Government is
 subject to restrictions as set forth in subparagraphs (a)
 and (c) of the Commercial Computer Software - Restricted
 Rights clause in FAR 52.227-19.
  
 Gaussian, Inc.
 340 Quinnipiac St., Bldg. 40, Wallingford CT 06492
  
  
 ---------------------------------------------------------------
 Warning -- This program may not be used in any manner that
 competes with the business of Gaussian, Inc. or will provide
 assistance to any competitor of Gaussian, Inc.  The licensee
 of this program is prohibited from giving any competitor of
 Gaussian, Inc. access to this program.  By using this program,
 the user acknowledges that Gaussian, Inc. is engaged in the
 business of creating and licensing software in the field of
 computational chemistry and represents and warrants to the
 licensee that it is not a competitor of Gaussian, Inc. and that
 it will not use this program in any manner prohibited above.
 ---------------------------------------------------------------
  

 Cite this work as:
 Gaussian 16, Revision C.02,
 M. J. Frisch, G. W. Trucks, H. B. Schlegel, G. E. Scuseria, 
 M. A. Robb, J. R. Cheeseman, G. Scalmani, V. Barone, 
 G. A. Petersson, H. Nakatsuji, X. Li, M. Caricato, A. V. Marenich, 
 J. Bloino, B. G. Janesko, R. Gomperts, B. Mennucci, H. P. Hratchian, 
 J. V. Ortiz, A. F. Izmaylov, J. L. Sonnenberg, D. Williams-Young, 
 F. Ding, F. Lipparini, F. Egidi, J. Goings, B. Peng, A. Petrone, 
 T. Henderson, D. Ranasinghe, V. G. Zakrzewski, J. Gao, N. Rega, 
 G. Zheng, W. Liang, M. Hada, M. Ehara, K. Toyota, R. Fukuda, 
 J. Hasegawa, M. Ishida, T. Nakajima, Y. Honda, O. Kitao, H. Nakai, 
 T. Vreven, K. Throssell, J. A. Montgomery, Jr., J. E. Peralta, 
 F. Ogliaro, M. J. Bearpark, J. J. Heyd, E. N. Brothers, K. N. Kudin, 
 V. N. Staroverov, T. A. Keith, R. Kobayashi, J. Normand, 
 K. Raghavachari, A. P. Rendell, J. C. Burant, S. S. Iyengar, 
 J. Tomasi, M. Cossi, J. M. Millam, M. Klene, C. Adamo, R. Cammi, 
 J. W. Ochterski, R. L. Martin, K. Morokuma, O. Farkas, 
 J. B. Foresman, and D. J. Fox, Gaussian, Inc., Wallingford CT, 2019.
 
 ******************************************
 Gaussian 16:  ES64L-G16RevC.02  7-Dec-2021
                24-Jun-2026 
 ******************************************
 %chk=disiloxane.chk
 %nprocshared=8
 Will use up to    8 processors via shared memory.
 %mem=14GB
 ----------------------------------------------------------------------
 #p B3LYP/def2SVP EmpiricalDispersion=GD3BJ opt SCRF=(SMD,Solvent=Tetra
 hydrofuran) int=ultrafine
 ----------------------------------------------------------------------
 1/18=20,19=15,26=6,38=1/1,3;
 2/9=110,12=2,17=6,18=5,40=1/2;
 3/5=43,7=101,11=2,25=1,30=1,70=32201,71=1,72=20,74=-5,75=-5,124=41/1,2,3;
 4//1;
 5/5=2,38=5,53=20/2;
 6/7=2,8=2,9=2,10=2,28=1/1;
 7//1,2,3,16;
 1/18=20,19=15,26=6/3(2);
 2/9=110/2;
 99//99;
 2/9=110/2;
 3/5=43,7=101,11=2,25=1,30=1,70=32205,71=1,72=20,74=-5,75=-5,124=41/1,2,3;
 4/5=5,16=3,69=1/1;
 5/5=2,38=5,53=20/2;
 7//1,2,3,16;
 1/18=20,19=15,26=6/3(-5);
 2/9=110/2;
 6/7=2,8=2,9=2,10=2,19=2,28=1/1;
 99/9=1/99;
 Leave Link    1 at Wed Jun 24 00:57:37 2026, MaxMem=  1879048192 cpu:               4.0 elap:               0.1
 (Enter /CH/g16/l101.exe)
 ----------
 disiloxane
 ----------
 Symbolic Z-matrix:
 Charge =  0 Multiplicity = 1
 Si                    0.        0.        0. 
 O                     1.2       0.        1.1 
 Si                    2.4       0.        0. 
 H                    -0.6       0.95     -0.55 
 H                    -0.6      -0.95     -0.55 
 H                     0.        0.       -1.48 
 H                     3.        0.95     -0.55 
 H                     3.       -0.95     -0.55 
 H                     2.4       0.       -1.48 
 
 ITRead=  0  0  0  0  0  0  0  0  0
 MicOpt= -1 -1 -1 -1 -1 -1 -1 -1 -1
 NAtoms=      9 NQM=        9 NQMF=       0 NMMI=      0 NMMIF=      0
                NMic=       0 NMicF=      0.
                    Isotopes and Nuclear Properties:
 (Nuclear quadrupole moments (NQMom) in fm**2, nuclear magnetic moments (NMagM)
  in nuclear magnetons)

  Atom         1           2           3           4           5           6           7           8           9
 IAtWgt=          28          16          28           1           1           1           1           1           1
 AtmWgt=  27.9769284  15.9949146  27.9769284   1.0078250   1.0078250   1.0078250   1.0078250   1.0078250   1.0078250
 NucSpn=           0           0           0           1           1           1           1           1           1
 AtZEff=  -0.0000000  -0.0000000  -0.0000000  -0.0000000  -0.0000000  -0.0000000  -0.0000000  -0.0000000  -0.0000000
 NQMom=    0.0000000   0.0000000   0.0000000   0.0000000   0.0000000   0.0000000   0.0000000   0.0000000   0.0000000
 NMagM=    0.0000000   0.0000000   0.0000000   2.7928460   2.7928460   2.7928460   2.7928460   2.7928460   2.7928460
 AtZNuc=  14.0000000   8.0000000  14.0000000   1.0000000   1.0000000   1.0000000   1.0000000   1.0000000   1.0000000
 Leave Link  101 at Wed Jun 24 00:57:38 2026, MaxMem=  1879048192 cpu:               0.4 elap:               0.4
 (Enter /CH/g16/l103.exe)

 GradGradGradGradGradGradGradGradGradGradGradGradGradGradGradGradGradGrad
 Berny optimization.
 Initialization pass.
                           ----------------------------
                           !    Initial Parameters    !
                           ! (Angstroms and Degrees)  !
 --------------------------                            --------------------------
 ! Name  Definition              Value          Derivative Info.                !
 --------------------------------------------------------------------------------
 ! R1    R(1,2)                  1.6279         estimate D2E/DX2                !
 ! R2    R(1,3)                  2.4            estimate D2E/DX2                !
 ! R3    R(1,4)                  1.251          estimate D2E/DX2                !
 ! R4    R(1,5)                  1.251          estimate D2E/DX2                !
 ! R5    R(1,6)                  1.48           estimate D2E/DX2                !
 ! R6    R(2,3)                  1.6279         estimate D2E/DX2                !
 ! R7    R(3,7)                  1.251          estimate D2E/DX2                !
 ! R8    R(3,8)                  1.251          estimate D2E/DX2                !
 ! R9    R(3,9)                  1.48           estimate D2E/DX2                !
 ! A1    A(2,1,4)              130.5893         estimate D2E/DX2                !
 ! A2    A(2,1,5)              130.5893         estimate D2E/DX2                !
 ! A3    A(2,1,6)              132.5104         estimate D2E/DX2                !
 ! A4    A(3,1,4)              118.6604         estimate D2E/DX2                !
 ! A5    A(3,1,5)              118.6604         estimate D2E/DX2                !
 ! A6    A(3,1,6)               90.0            estimate D2E/DX2                !
 ! A7    A(4,1,5)               98.8214         estimate D2E/DX2                !
 ! A8    A(4,1,6)               63.9185         estimate D2E/DX2                !
 ! A9    A(5,1,6)               63.9185         estimate D2E/DX2                !
 ! A10   A(1,3,7)              118.6604         estimate D2E/DX2                !
 ! A11   A(1,3,8)              118.6604         estimate D2E/DX2                !
 ! A12   A(1,3,9)               90.0            estimate D2E/DX2                !
 ! A13   A(2,3,7)              130.5893         estimate D2E/DX2                !
 ! A14   A(2,3,8)              130.5893         estimate D2E/DX2                !
 ! A15   A(2,3,9)              132.5104         estimate D2E/DX2                !
 ! A16   A(7,3,8)               98.8214         estimate D2E/DX2                !
 ! A17   A(7,3,9)               63.9185         estimate D2E/DX2                !
 ! A18   A(8,3,9)               63.9185         estimate D2E/DX2                !
 ! D1    D(4,1,3,7)              0.0            estimate D2E/DX2                !
 ! D2    D(4,1,3,8)           -119.8628         estimate D2E/DX2                !
 ! D3    D(4,1,3,9)            -59.9314         estimate D2E/DX2                !
 ! D4    D(5,1,3,7)            119.8628         estimate D2E/DX2                !
 ! D5    D(5,1,3,8)              0.0            estimate D2E/DX2                !
 ! D6    D(5,1,3,9)             59.9314         estimate D2E/DX2                !
 ! D7    D(6,1,3,7)             59.9314         estimate D2E/DX2                !
 ! D8    D(6,1,3,8)            -59.9314         estimate D2E/DX2                !
 ! D9    D(6,1,3,9)              0.0            estimate D2E/DX2                !
 --------------------------------------------------------------------------------
 Trust Radius=3.00D-01 FncErr=5.00D-06 GrdErr=5.00D-06 EigMax=2.50D+02 EigMin=1.00D-04
 Number of steps in this run=     46 maximum allowed number of steps=    100.
 GradGradGradGradGradGradGradGradGradGradGradGradGradGradGradGradGradGrad

 Leave Link  103 at Wed Jun 24 00:57:38 2026, MaxMem=  1879048192 cpu:               0.0 elap:               0.0
 (Enter /CH/g16/l202.exe)
                          Input orientation:                          
 ---------------------------------------------------------------------
 Center     Atomic      Atomic             Coordinates (Angstroms)
 Number     Number       Type             X           Y           Z
 ---------------------------------------------------------------------
      1         14           0        0.000000    0.000000    0.000000
      2          8           0        1.200000    0.000000    1.100000
      3         14           0        2.400000    0.000000    0.000000
      4          1           0       -0.600000    0.950000   -0.550000
      5          1           0       -0.600000   -0.950000   -0.550000
      6          1           0        0.000000    0.000000   -1.480000
      7          1           0        3.000000    0.950000   -0.550000
      8          1           0        3.000000   -0.950000   -0.550000
      9          1           0        2.400000    0.000000   -1.480000
 ---------------------------------------------------------------------
                    Distance matrix (angstroms):
                    1          2          3          4          5
     1  Si   0.000000
     2  O    1.627882   0.000000
     3  Si   2.400000   1.627882   0.000000
     4  H    1.251000   2.620115   3.194527   0.000000
     5  H    1.251000   2.620115   3.194527   1.900000   0.000000
     6  H    1.480000   2.845417   2.819645   1.458561   1.458561
     7  H    3.194527   2.620115   1.251000   3.600000   4.070626
     8  H    3.194527   2.620115   1.251000   4.070626   3.600000
     9  H    2.819645   2.845417   1.480000   3.281372   3.281372
                    6          7          8          9
     6  H    0.000000
     7  H    3.281372   0.000000
     8  H    3.281372   1.900000   0.000000
     9  H    2.400000   1.458561   1.458561   0.000000
 Stoichiometry    H6OSi2
 Framework group  C2V[C2(O),SGV(H2Si2),X(H4)]
 Deg. of freedom     7
 Full point group                 C2V     NOp   4
 Largest Abelian subgroup         C2V     NOp   4
 Largest concise Abelian subgroup C2V     NOp   4
                         Standard orientation:                         
 ---------------------------------------------------------------------
 Center     Atomic      Atomic             Coordinates (Angstroms)
 Number     Number       Type             X           Y           Z
 ---------------------------------------------------------------------
      1         14           0        0.000000    1.200000   -0.086667
      2          8           0       -0.000000   -0.000000    1.013333
      3         14           0       -0.000000   -1.200000   -0.086667
      4          1           0        0.950000    1.800000   -0.636667
      5          1           0       -0.950000    1.800000   -0.636667
      6          1           0        0.000000    1.200000   -1.566667
      7          1           0        0.950000   -1.800000   -0.636667
      8          1           0       -0.950000   -1.800000   -0.636667
      9          1           0       -0.000000   -1.200000   -1.566667
 ---------------------------------------------------------------------
 Rotational constants (GHZ):          18.9584777           5.0449236           4.2271178
 Leave Link  202 at Wed Jun 24 00:57:38 2026, MaxMem=  1879048192 cpu:               0.0 elap:               0.0
 (Enter /CH/g16/l301.exe)
 Standard basis: def2SVP (5D, 7F)
 Ernie: Thresh=  0.10000D-02 Tol=  0.10000D-05 Strict=F.
 There are    31 symmetry adapted cartesian basis functions of A1  symmetry.
 There are    12 symmetry adapted cartesian basis functions of A2  symmetry.
 There are    14 symmetry adapted cartesian basis functions of B1  symmetry.
 There are    26 symmetry adapted cartesian basis functions of B2  symmetry.
 There are    29 symmetry adapted basis functions of A1  symmetry.
 There are    12 symmetry adapted basis functions of A2  symmetry.
 There are    14 symmetry adapted basis functions of B1  symmetry.
 There are    25 symmetry adapted basis functions of B2  symmetry.
    80 basis functions,   141 primitive gaussians,    83 cartesian basis functions
    21 alpha electrons       21 beta electrons
       nuclear repulsion energy       177.1294236072 Hartrees.
 IExCor=  402 DFT=T Ex+Corr=B3LYP ExCW=0 ScaHFX=  0.200000
 ScaDFX=  0.800000  0.720000  1.000000  0.810000 ScalE2=  1.000000  1.000000
 IRadAn=      5 IRanWt=     -1 IRanGd=            0 ICorTp=0 IEmpDi=141
 NAtoms=    9 NActive=    9 NUniq=    4 SFac= 4.00D+00 NAtFMM=   60 NAOKFM=F Big=F
 Integral buffers will be    131072 words long.
 Raffenetti 2 integral format.
 Two-electron integral symmetry is turned on.
 R6Disp:  Grimme-D3(BJ) Dispersion energy=       -0.0124921445 Hartrees.
 Nuclear repulsion after empirical dispersion term =      177.1169314626 Hartrees.
 ------------------------------------------------------------------------------
 Polarizable Continuum Model (PCM)
 =================================
 Model                : PCM.
 Atomic radii         : SMD-Coulomb.
 Polarization charges : Total charges.
 Charge compensation  : None.
 Solution method      : On-the-fly selection.
 Cavity type          : VdW (van der Waals Surface) (Alpha=1.000).
 Cavity algorithm     : GePol (No added spheres)
                        Default sphere list used, NSphG=    9.
                        Lebedev-Laikov grids with approx.  5.0 points / Ang**2.
                        Smoothing algorithm: York/Karplus (Gamma=1.0000).
                        Polarization charges: spherical gaussians, with
                                              point-specific exponents (IZeta= 3).
                        Self-potential: point-specific (ISelfS= 7).
                        Self-field    : sphere-specific E.n sum rule (ISelfD= 2).
 1st derivatives      : Analytical E(r).r(x)/FMM algorithm (CHGder, D1EAlg=3).
                        Cavity 1st derivative terms included.
 Solvent              : TetraHydroFuran, Eps=   7.425700 Eps(inf)=   1.974025
 ------------------------------------------------------------------------------
 Spheres list:
 ISph  on   Nord     Re0    Alpha      Xe            Ye            Ze
    1  Si      1    2.4700  1.000      0.000000      1.200000     -0.086667
    2   O      2    2.2940  1.000      0.000000     -0.000000      1.013333
    3  Si      3    2.4700  1.000     -0.000000     -1.200000     -0.086667
    4   H      4    1.2000  1.000      0.950000      1.800000     -0.636667
    5   H      5    1.2000  1.000     -0.950000      1.800000     -0.636667
    6   H      6    1.2000  1.000      0.000000      1.200000     -1.566667
    7   H      7    1.2000  1.000      0.950000     -1.800000     -0.636667
    8   H      8    1.2000  1.000     -0.950000     -1.800000     -0.636667
    9   H      9    1.2000  1.000     -0.000000     -1.200000     -1.566667
 ------------------------------------------------------------------------------
 GePol: Number of generator spheres                  =       9
 GePol: Total number of spheres                      =       9
 GePol: Number of exposed spheres                    =       5 ( 55.56%)
 GePol: Number of points                             =     797
 GePol: Average weight of points                     =       0.15
 GePol: Minimum weight of points                     =   0.94D-05
 GePol: Maximum weight of points                     =    0.19536
 GePol: Number of points with low weight             =      14
 GePol: Fraction of low-weight points (<1% of avg)   =       1.76%
 GePol: Cavity surface area                          =    120.334 Ang**2
 GePol: Cavity volume                                =    115.562 Ang**3
 ------------------------------------------------------------------------------
 Atomic radii for non-electrostatic terms: SMD-CDS.
 ------------------------------------------------------------------------------
 PCM non-electrostatic energy =        -0.0007842695 Hartrees.
 Nuclear repulsion after PCM non-electrostatic terms =      177.1161471932 Hartrees.
 Leave Link  301 at Wed Jun 24 00:57:38 2026, MaxMem=  1879048192 cpu:               0.0 elap:               0.0
 (Enter /CH/g16/l302.exe)
 NPDir=0 NMtPBC=     1 NCelOv=     1 NCel=       1 NClECP=     1 NCelD=      1
         NCelK=      1 NCelE2=     1 NClLst=     1 CellRange=     0.0.
 One-electron integrals computed using PRISM.
 One-electron integral symmetry used in STVInt
   4 Symmetry operations used in ECPInt.
 ECPInt:  NShTT=     820 NPrTT=    3158 LenC2=     820 LenP2D=    2714.
 LDataN:  DoStor=T MaxTD1= 4 Len=   56
 NBasis=    80 RedAO= T EigKep=  1.42D-03  NBF=    29    12    14    25
 NBsUse=    80 1.00D-06 EigRej= -1.00D+00 NBFU=    29    12    14    25
 Precomputing XC quadrature grid using
 IXCGrd= 4 IRadAn=           5 IRanWt=          -1 IRanGd=           0 AccXCQ= 0.00D+00.
 Generated NRdTot=       0 NPtTot=           0 NUsed=           0 NTot=          32
 NSgBfM=    83    83    83    83    83 MxSgAt=     9 MxSgA2=     9.
 Leave Link  302 at Wed Jun 24 00:57:38 2026, MaxMem=  1879048192 cpu:               0.3 elap:               0.1
 (Enter /CH/g16/l303.exe)
 DipDrv:  MaxL=1.
 Leave Link  303 at Wed Jun 24 00:57:38 2026, MaxMem=  1879048192 cpu:               0.0 elap:               0.0
 (Enter /CH/g16/l401.exe)
 ExpMin= 7.80D-02 ExpMax= 6.90D+03 ExpMxC= 1.04D+03 IAcc=3 IRadAn=         5 AccDes= 0.00D+00
 Harris functional with IExCor=  402 and IRadAn=       5 diagonalized for initial guess.
 HarFok:  IExCor=  402 AccDes= 0.00D+00 IRadAn=         5 IDoV= 1 UseB2=F ITyADJ=14
 ICtDFT=  3500011 ScaDFX=  1.000000  1.000000  1.000000  1.000000
 FoFCou: FMM=F IPFlag=           0 FMFlag=      100000 FMFlg1=           0
         NFxFlg=           0 DoJE=T BraDBF=F KetDBF=T FulRan=T
         wScrn=  0.000000 ICntrl=       500 IOpCl=  0 I1Cent=   200000004 NGrid=           0
         NMat0=    1 NMatS0=      1 NMatT0=    0 NMatD0=    1 NMtDS0=    0 NMtDT0=    0
 Petite list used in FoFCou.
 Harris En= -657.302756060803    
 JPrj=0 DoOrth=F DoCkMO=F.
 Initial guess orbital symmetries:
       Occupied  (A1) (B2) (A1) (B2) (A1) (A1) (B2) (B1) (A2) (A1)
                 (B2) (A1) (A1) (B2) (B2) (A1) (B1) (A2) (B1) (A1)
                 (B2)
       Virtual   (A1) (A1) (B2) (B2) (B1) (A1) (A2) (B2) (A1) (B1)
                 (B2) (A2) (A1) (B1) (B2) (A1) (A1) (A2) (B2) (B1)
                 (A1) (A2) (B2) (A1) (B2) (B2) (A1) (B2) (A1) (B1)
                 (B2) (A1) (B1) (A2) (B2) (A2) (B1) (A1) (A1) (B1)
                 (B2) (A2) (A1) (B2) (B1) (A1) (A2) (B2) (A1) (B2)
                 (B1) (A2) (A1) (B2) (A1) (A2) (B1) (A1) (B2)
 The electronic state of the initial guess is 1-A1.
 Leave Link  401 at Wed Jun 24 00:57:38 2026, MaxMem=  1879048192 cpu:               0.5 elap:               0.1
 (Enter /CH/g16/l502.exe)
 Keep R1 ints in memory in symmetry-blocked form, NReq=12508873.
 FoFCou: FMM=F IPFlag=           0 FMFlag=           0 FMFlg1=           0
         NFxFlg=           0 DoJE=F BraDBF=F KetDBF=F FulRan=T
         wScrn=  0.000000 ICntrl=       600 IOpCl=  0 I1Cent=           0 NGrid=           0
         NMat0=    1 NMatS0=   3240 NMatT0=    0 NMatD0=    1 NMtDS0=    0 NMtDT0=    0
 Petite list used in FoFCou.
 Closed shell SCF:
 Using DIIS extrapolation, IDIIS=  1040.
 NGot=  1879048192 LenX=  1877685988 LenY=  1877678658
 Requested convergence on RMS density matrix=1.00D-08 within 128 cycles.
 Requested convergence on MAX density matrix=1.00D-06.
 Requested convergence on             energy=1.00D-06.
 No special actions if energy rises.

 Cycle   1  Pass 1  IDiag  1:
 Inv3:  Mode=1 IEnd=     1905627.
 Iteration    1 A*A^-1 deviation from unit magnitude is 2.89D-15 for    216.
 Iteration    1 A*A^-1 deviation from orthogonality  is 1.93D-15 for    370     22.
 Iteration    1 A^-1*A deviation from unit magnitude is 3.11D-15 for    374.
 Iteration    1 A^-1*A deviation from orthogonality  is 1.55D-15 for    607     30.
 E= -657.201279236835    
 DIIS: error= 3.11D-02 at cycle   1 NSaved=   1.
 NSaved= 1 IEnMin= 1 EnMin= -657.201279236835     IErMin= 1 ErrMin= 3.11D-02
 ErrMax= 3.11D-02  0.00D+00 EMaxC= 1.00D-01 BMatC= 1.06D-01 BMatP= 1.06D-01
 IDIUse=3 WtCom= 6.89D-01 WtEn= 3.11D-01
 Coeff-Com:  0.100D+01
 Coeff-En:   0.100D+01
 Coeff:      0.100D+01
 Gap=     0.121 Goal=   None    Shift=    0.000
 GapD=    0.121 DampG=1.000 DampE=0.500 DampFc=0.5000 IDamp=-1.
 Damping current iteration by 5.00D-01
 RMSDP=8.05D-03 MaxDP=1.21D-01              OVMax= 1.68D-01

 Cycle   2  Pass 1  IDiag  1:
 E= -657.256538178849     Delta-E=       -0.055258942013 Rises=F Damp=T
 DIIS: error= 1.04D-02 at cycle   2 NSaved=   2.
 NSaved= 2 IEnMin= 2 EnMin= -657.256538178849     IErMin= 2 ErrMin= 1.04D-02
 ErrMax= 1.04D-02  0.00D+00 EMaxC= 1.00D-01 BMatC= 7.70D-03 BMatP= 1.06D-01
 IDIUse=3 WtCom= 8.96D-01 WtEn= 1.04D-01
 Coeff-Com:  0.501D-01 0.950D+00
 Coeff-En:   0.000D+00 0.100D+01
 Coeff:      0.449D-01 0.955D+00
 Gap=     0.131 Goal=   None    Shift=    0.000
 RMSDP=2.68D-03 MaxDP=3.57D-02 DE=-5.53D-02 OVMax= 9.67D-02

 Cycle   3  Pass 1  IDiag  1:
 E= -657.306018704047     Delta-E=       -0.049480525199 Rises=F Damp=F
 DIIS: error= 1.53D-02 at cycle   3 NSaved=   3.
 NSaved= 3 IEnMin= 3 EnMin= -657.306018704047     IErMin= 2 ErrMin= 1.04D-02
 ErrMax= 1.53D-02  0.00D+00 EMaxC= 1.00D-01 BMatC= 1.23D-02 BMatP= 7.70D-03
 IDIUse=2 WtCom= 0.00D+00 WtEn= 1.00D+00
 Coeff-En:   0.000D+00 0.000D+00 0.100D+01
 Coeff:      0.000D+00 0.000D+00 0.100D+01
 Gap=     0.160 Goal=   None    Shift=    0.000
 RMSDP=3.59D-03 MaxDP=6.57D-02 DE=-4.95D-02 OVMax= 8.52D-02

 Cycle   4  Pass 1  IDiag  1:
 E= -657.276566520174     Delta-E=        0.029452183873 Rises=F Damp=F
 DIIS: error= 3.23D-02 at cycle   4 NSaved=   4.
 NSaved= 4 IEnMin= 3 EnMin= -657.306018704047     IErMin= 2 ErrMin= 1.04D-02
 ErrMax= 3.23D-02  0.00D+00 EMaxC= 1.00D-01 BMatC= 4.98D-02 BMatP= 7.70D-03
 IDIUse=2 WtCom= 0.00D+00 WtEn= 1.00D+00
 Coeff-En:   0.000D+00 0.000D+00 0.738D+00 0.262D+00
 Coeff:      0.000D+00 0.000D+00 0.738D+00 0.262D+00
 Gap=     0.148 Goal=   None    Shift=    0.000
 RMSDP=1.82D-03 MaxDP=3.52D-02 DE= 2.95D-02 OVMax= 4.76D-02

 Cycle   5  Pass 1  IDiag  1:
 E= -657.315807967257     Delta-E=       -0.039241447084 Rises=F Damp=F
 DIIS: error= 6.39D-03 at cycle   5 NSaved=   5.
 NSaved= 5 IEnMin= 5 EnMin= -657.315807967257     IErMin= 5 ErrMin= 6.39D-03
 ErrMax= 6.39D-03  0.00D+00 EMaxC= 1.00D-01 BMatC= 2.03D-03 BMatP= 7.70D-03
 IDIUse=3 WtCom= 9.36D-01 WtEn= 6.39D-02
 Coeff-Com: -0.182D-01 0.505D-01 0.179D+00-0.124D+00 0.912D+00
 Coeff-En:   0.000D+00 0.000D+00 0.156D+00 0.000D+00 0.844D+00
 Coeff:     -0.171D-01 0.473D-01 0.178D+00-0.116D+00 0.908D+00
 Gap=     0.143 Goal=   None    Shift=    0.000
 RMSDP=5.39D-04 MaxDP=9.18D-03 DE=-3.92D-02 OVMax= 1.31D-02

 Cycle   6  Pass 1  IDiag  1:
 E= -657.317681154306     Delta-E=       -0.001873187049 Rises=F Damp=F
 DIIS: error= 3.25D-04 at cycle   6 NSaved=   6.
 NSaved= 6 IEnMin= 6 EnMin= -657.317681154306     IErMin= 6 ErrMin= 3.25D-04
 ErrMax= 3.25D-04  0.00D+00 EMaxC= 1.00D-01 BMatC= 5.26D-06 BMatP= 2.03D-03
 IDIUse=3 WtCom= 9.97D-01 WtEn= 3.25D-03
 Coeff-Com: -0.370D-02 0.719D-02 0.291D-01-0.189D-01 0.181D+00 0.805D+00
 Coeff-En:   0.000D+00 0.000D+00 0.000D+00 0.000D+00 0.000D+00 0.100D+01
 Coeff:     -0.369D-02 0.717D-02 0.290D-01-0.188D-01 0.181D+00 0.806D+00
 Gap=     0.144 Goal=   None    Shift=    0.000
 RMSDP=2.39D-05 MaxDP=4.86D-04 DE=-1.87D-03 OVMax= 5.62D-04

 Cycle   7  Pass 1  IDiag  1:
 E= -657.317685383489     Delta-E=       -0.000004229182 Rises=F Damp=F
 DIIS: error= 1.05D-05 at cycle   7 NSaved=   7.
 NSaved= 7 IEnMin= 7 EnMin= -657.317685383489     IErMin= 7 ErrMin= 1.05D-05
 ErrMax= 1.05D-05  0.00D+00 EMaxC= 1.00D-01 BMatC= 1.26D-08 BMatP= 5.26D-06
 IDIUse=1 WtCom= 1.00D+00 WtEn= 0.00D+00
 Coeff-Com: -0.547D-03 0.446D-03-0.297D-03-0.128D-02 0.148D-01 0.239D+00
 Coeff-Com:  0.747D+00
 Coeff:     -0.547D-03 0.446D-03-0.297D-03-0.128D-02 0.148D-01 0.239D+00
 Coeff:      0.747D+00
 Gap=     0.144 Goal=   None    Shift=    0.000
 RMSDP=2.88D-06 MaxDP=3.89D-05 DE=-4.23D-06 OVMax= 3.82D-05

 Cycle   8  Pass 1  IDiag  1:
 E= -657.317685397215     Delta-E=       -0.000000013726 Rises=F Damp=F
 DIIS: error= 2.06D-06 at cycle   8 NSaved=   8.
 NSaved= 8 IEnMin= 8 EnMin= -657.317685397215     IErMin= 8 ErrMin= 2.06D-06
 ErrMax= 2.06D-06  0.00D+00 EMaxC= 1.00D-01 BMatC= 3.40D-10 BMatP= 1.26D-08
 IDIUse=1 WtCom= 1.00D+00 WtEn= 0.00D+00
 Coeff-Com: -0.106D-03 0.979D-04-0.717D-03-0.942D-04 0.350D-03 0.412D-01
 Coeff-Com:  0.194D+00 0.765D+00
 Coeff:     -0.106D-03 0.979D-04-0.717D-03-0.942D-04 0.350D-03 0.412D-01
 Coeff:      0.194D+00 0.765D+00
 Gap=     0.144 Goal=   None    Shift=    0.000
 RMSDP=5.83D-07 MaxDP=7.77D-06 DE=-1.37D-08 OVMax= 1.10D-05

 Cycle   9  Pass 1  IDiag  1:
 E= -657.317685397672     Delta-E=       -0.000000000457 Rises=F Damp=F
 DIIS: error= 2.88D-07 at cycle   9 NSaved=   9.
 NSaved= 9 IEnMin= 9 EnMin= -657.317685397672     IErMin= 9 ErrMin= 2.88D-07
 ErrMax= 2.88D-07  0.00D+00 EMaxC= 1.00D-01 BMatC= 1.02D-11 BMatP= 3.40D-10
 IDIUse=1 WtCom= 1.00D+00 WtEn= 0.00D+00
 Coeff-Com:  0.118D-04-0.203D-04-0.113D-03 0.850D-04-0.756D-03-0.382D-02
 Coeff-Com: -0.133D-01 0.824D-01 0.936D+00
 Coeff:      0.118D-04-0.203D-04-0.113D-03 0.850D-04-0.756D-03-0.382D-02
 Coeff:     -0.133D-01 0.824D-01 0.936D+00
 Gap=     0.144 Goal=   None    Shift=    0.000
 RMSDP=6.01D-08 MaxDP=1.10D-06 DE=-4.57D-10 OVMax= 1.54D-06

 Cycle  10  Pass 1  IDiag  1:
 E= -657.317685397680     Delta-E=       -0.000000000008 Rises=F Damp=F
 DIIS: error= 2.70D-08 at cycle  10 NSaved=  10.
 NSaved=10 IEnMin=10 EnMin= -657.317685397680     IErMin=10 ErrMin= 2.70D-08
 ErrMax= 2.70D-08  0.00D+00 EMaxC= 1.00D-01 BMatC= 8.44D-14 BMatP= 1.02D-11
 IDIUse=1 WtCom= 1.00D+00 WtEn= 0.00D+00
 Coeff-Com:  0.175D-05-0.923D-06 0.777D-05 0.344D-05-0.349D-04-0.979D-03
 Coeff-Com: -0.528D-02-0.304D-02 0.122D+00 0.887D+00
 Coeff:      0.175D-05-0.923D-06 0.777D-05 0.344D-05-0.349D-04-0.979D-03
 Coeff:     -0.528D-02-0.304D-02 0.122D+00 0.887D+00
 Gap=     0.144 Goal=   None    Shift=    0.000
 RMSDP=9.13D-09 MaxDP=1.66D-07 DE=-7.62D-12 OVMax= 2.97D-07

 Error on total polarization charges =  0.02038
 SCF Done:  E(RB3LYP) =  -657.317685398     A.U. after   10 cycles
            NFock= 10  Conv=0.91D-08     -V/T= 2.0010
 KE= 6.566323425347D+02 PE=-1.916920910688D+03 EE= 4.258547355628D+02
 SMD-CDS (non-electrostatic) energy       (kcal/mol) =      -0.49
 (included in total energy above)
 Leave Link  502 at Wed Jun 24 00:57:39 2026, MaxMem=  1879048192 cpu:               6.2 elap:               0.9
 (Enter /CH/g16/l601.exe)
 Copying SCF densities to generalized density rwf, IOpCl= 0 IROHF=0.

 **********************************************************************

            Population analysis using the SCF Density.

 **********************************************************************

 Orbital symmetries:
       Occupied  (A1) (B2) (A1) (B2) (A1) (A1) (B2) (A1) (B2) (B1)
                 (A2) (A1) (A1) (B2) (B2) (A1) (B1) (A2) (B1) (A1)
                 (B2)
       Virtual   (A1) (A1) (B2) (B2) (B1) (A1) (A2) (B2) (A1) (B2)
                 (B1) (A2) (A1) (B1) (B2) (A1) (A1) (A2) (B2) (B1)
                 (A2) (A1) (B2) (B2) (A1) (A1) (B2) (B2) (A1) (B1)
                 (B2) (A1) (A2) (B1) (B2) (A2) (A1) (B1) (A1) (B1)
                 (B2) (A2) (A1) (B2) (A1) (B1) (A2) (B2) (A1) (B2)
                 (B1) (A2) (A1) (B2) (A1) (A2) (B1) (A1) (B2)
 The electronic state is 1-A1.
 Alpha  occ. eigenvalues --  -66.11550 -66.11550 -19.19865  -5.30126  -5.30125
 Alpha  occ. eigenvalues --   -3.66336  -3.66300  -3.66131  -3.66122  -3.66053
 Alpha  occ. eigenvalues --   -3.66052  -1.06154  -0.61120  -0.60799  -0.50372
 Alpha  occ. eigenvalues --   -0.46594  -0.45547  -0.37095  -0.35170  -0.29281
 Alpha  occ. eigenvalues --   -0.22026
 Alpha virt. eigenvalues --   -0.07656   0.00354   0.04721   0.08164   0.09233
 Alpha virt. eigenvalues --    0.12214   0.12451   0.16692   0.18637   0.26856
 Alpha virt. eigenvalues --    0.27262   0.30478   0.30806   0.35196   0.36787
 Alpha virt. eigenvalues --    0.40327   0.41232   0.48162   0.48504   0.49526
 Alpha virt. eigenvalues --    0.56674   0.57319   0.62458   0.71079   0.71181
 Alpha virt. eigenvalues --    0.74230   0.74691   0.85849   0.91479   0.97936
 Alpha virt. eigenvalues --    1.01954   1.06238   1.14223   1.14361   1.17716
 Alpha virt. eigenvalues --    1.26566   1.34457   1.36025   1.46206   1.48752
 Alpha virt. eigenvalues --    1.54563   1.59442   1.83512   1.90843   1.92225
 Alpha virt. eigenvalues --    1.93438   1.94134   1.98299   2.08783   2.11202
 Alpha virt. eigenvalues --    2.24210   2.24516   2.40120   2.48472   2.80086
 Alpha virt. eigenvalues --    2.88768   2.89492   3.03949   3.19636
          Condensed to atoms (all electrons):
               1          2          3          4          5          6
     1  Si  12.045655   0.355949   0.033525   0.434746   0.434746   0.244612
     2  O    0.355949   7.754151   0.355949  -0.012885  -0.012885  -0.002588
     3  Si   0.033525   0.355949  12.045655  -0.001787  -0.001787  -0.025070
     4  H    0.434746  -0.012885  -0.001787   0.797700  -0.048959  -0.091522
     5  H    0.434746  -0.012885  -0.001787  -0.048959   0.797700  -0.091522
     6  H    0.244612  -0.002588  -0.025070  -0.091522  -0.091522   1.132323
     7  H   -0.001787  -0.012885   0.434746   0.001628  -0.000604   0.001144
     8  H   -0.001787  -0.012885   0.434746  -0.000604   0.001628   0.001144
     9  H   -0.025070  -0.002588   0.244612   0.001144   0.001144  -0.052696
               7          8          9
     1  Si  -0.001787  -0.001787  -0.025070
     2  O   -0.012885  -0.012885  -0.002588
     3  Si   0.434746   0.434746   0.244612
     4  H    0.001628  -0.000604   0.001144
     5  H   -0.000604   0.001628   0.001144
     6  H    0.001144   0.001144  -0.052696
     7  H    0.797700  -0.048959  -0.091522
     8  H   -0.048959   0.797700  -0.091522
     9  H   -0.091522  -0.091522   1.132323
 Mulliken charges:
               1
     1  Si   0.479411
     2  O   -0.409333
     3  Si   0.479411
     4  H   -0.079461
     5  H   -0.079461
     6  H   -0.115824
     7  H   -0.079461
     8  H   -0.079461
     9  H   -0.115824
 Sum of Mulliken charges =  -0.00000
 Mulliken charges with hydrogens summed into heavy atoms:
               1
     1  Si   0.204667
     2  O   -0.409333
     3  Si   0.204667
 Electronic spatial extent (au):  <R**2>=            348.1556
 Charge=             -0.0000 electrons
 Dipole moment (field-independent basis, Debye):
    X=             -0.0000    Y=              0.0000    Z=              0.9383  Tot=              0.9383
 Quadrupole moment (field-independent basis, Debye-Ang):
   XX=            -34.5859   YY=            -36.9469   ZZ=            -37.8273
   XY=              0.0000   XZ=              0.0000   YZ=              0.0000
 Traceless Quadrupole moment (field-independent basis, Debye-Ang):
   XX=              1.8675   YY=             -0.4935   ZZ=             -1.3739
   XY=              0.0000   XZ=              0.0000   YZ=              0.0000
 Octapole moment (field-independent basis, Debye-Ang**2):
  XXX=              0.0000  YYY=              0.0000  ZZZ=             12.6897  XYY=              0.0000
  XXY=              0.0000  XXZ=              2.8043  XZZ=              0.0000  YZZ=              0.0000
  YYZ=              2.5670  XYZ=              0.0000
 Hexadecapole moment (field-independent basis, Debye-Ang**3):
 XXXX=            -65.3455 YYYY=           -364.4967 ZZZZ=           -132.8072 XXXY=             -0.0000
 XXXZ=             -0.0000 YYYX=             -0.0000 YYYZ=             -0.0000 ZZZX=             -0.0000
 ZZZY=              0.0000 XXYY=            -75.5071 XXZZ=            -30.2474 YYZZ=            -72.1955
 XXYZ=             -0.0000 YYXZ=             -0.0000 ZZXY=             -0.0000
 N-N= 1.771161471932D+02 E-N=-1.916920915088D+03  KE= 6.566323425347D+02
 Symmetry A1   KE= 3.315858932212D+02
 Symmetry A2   KE= 2.640799848004D+01
 Symmetry B1   KE= 3.058396058198D+01
 Symmetry B2   KE= 2.680544902515D+02
 No NMR shielding tensors so no spin-rotation constants.
 Leave Link  601 at Wed Jun 24 00:57:39 2026, MaxMem=  1879048192 cpu:               0.3 elap:               0.1
 (Enter /CH/g16/l701.exe)
 ... and contract with generalized density number  0.
 Compute integral first derivatives.
 R6Disp: Adding Grimme-D3(BJ) dispersion energy 1st derivatives to the gradient.
   4 Symmetry operations used in ECPInt.
 ECPInt:  NShTT=     820 NPrTT=    3158 LenC2=     820 LenP2D=    2714.
 LDataN:  DoStor=T MaxTD1= 5 Len=  102
 D1PCM: PCM CHGder 1st derivatives, ID1Alg=3 FixD1E=F DoIter=F DoCFld=F I1PDM=0.
 GePol: Maximum number of non-zero 1st derivatives   =     343
 Leave Link  701 at Wed Jun 24 00:57:39 2026, MaxMem=  1879048192 cpu:               1.5 elap:               0.2
 (Enter /CH/g16/l702.exe)
 L702 exits ... SP integral derivatives will be done elsewhere.
 Leave Link  702 at Wed Jun 24 00:57:39 2026, MaxMem=  1879048192 cpu:               0.0 elap:               0.0
 (Enter /CH/g16/l703.exe)
 Integral derivatives from FoFJK, PRISM(SPDF).
 Compute integral first derivatives, UseDBF=F ICtDFT=           0.
 Calling FoFJK, ICntrl=      2127 FMM=F ISym2X=1 I1Cent= 0 IOpClX= 0 NMat=1 NMatS=1 NMatT=0.
 FoFJK:  IHMeth= 1 ICntrl=    2127 DoSepK=F KAlg= 0 I1Cent=           0 FoldK=F
 IRaf=         0 NMat=       1 IRICut=       1 DoRegI=T DoRafI=F ISym2E= 1 IDoP0=0 IntGTp=1.
 FoFCou: FMM=F IPFlag=           0 FMFlag=      100000 FMFlg1=         800
         NFxFlg=           0 DoJE=F BraDBF=F KetDBF=F FulRan=T
         wScrn=  0.000000 ICntrl=      2127 IOpCl=  0 I1Cent=           0 NGrid=           0
         NMat0=    1 NMatS0=      1 NMatT0=    0 NMatD0=    1 NMtDS0=    0 NMtDT0=    0
 Petite list used in FoFCou.
 Leave Link  703 at Wed Jun 24 00:57:39 2026, MaxMem=  1879048192 cpu:               0.8 elap:               0.1
 (Enter /CH/g16/l716.exe)
 Dipole        =-5.56650410D-17 1.77635684D-15 3.69171054D-01
 ***** Axes restored to original set *****
 -------------------------------------------------------------------
 Center     Atomic                   Forces (Hartrees/Bohr)
 Number     Number              X              Y              Z
 -------------------------------------------------------------------
      1       14           0.013016423    0.000000000    0.067520776
      2        8           0.000000000   -0.000000000    0.006406106
      3       14          -0.013016423   -0.000000000    0.067520776
      4        1          -0.072983899    0.132383672   -0.017558632
      5        1          -0.072983899   -0.132383672   -0.017558632
      6        1           0.041693570    0.000000000   -0.035606565
      7        1           0.072983899    0.132383672   -0.017558632
      8        1           0.072983899   -0.132383672   -0.017558632
      9        1          -0.041693570   -0.000000000   -0.035606565
 -------------------------------------------------------------------
 Cartesian Forces:  Max     0.132383672 RMS     0.063290024
 Leave Link  716 at Wed Jun 24 00:57:39 2026, MaxMem=  1879048192 cpu:               0.0 elap:               0.0
 (Enter /CH/g16/l103.exe)

 GradGradGradGradGradGradGradGradGradGradGradGradGradGradGradGradGradGrad
 Berny optimization.
 FormGI is forming the generalized inverse of G from B-inverse, IUseBI=4.
 Internal  Forces:  Max     0.143255102 RMS     0.054710176
 Search for a local minimum.
 Step number   1 out of a maximum of   46
 All quantities printed in internal units (Hartrees-Bohrs-Radians)
 RMS Force = .54710D-01 SwitMx=.10000D-02 MixMth= 1
 Mixed Optimization -- RFO/linear search
 Second derivative matrix not updated -- first step.
 ITU=  0
     Eigenvalues ---    0.00719   0.05152   0.05188   0.06540   0.07069
     Eigenvalues ---    0.11840   0.16000   0.16000   0.16000   0.16000
     Eigenvalues ---    0.16000   0.16000   0.16000   0.17773   0.17773
     Eigenvalues ---    0.35043   0.35043   0.35043   0.35043   0.44193
     Eigenvalues ---    0.44670
 RFO step:  Lambda=-2.19767850D-01 EMin= 7.19488391D-03
 Linear search not attempted -- first point.
 Maximum step size (   0.300) exceeded in Quadratic search.
    -- Step size scaled by   0.466
 Iteration  1 RMS(Cart)=  0.06360350 RMS(Int)=  0.00135109
 Iteration  2 RMS(Cart)=  0.00092443 RMS(Int)=  0.00039027
 Iteration  3 RMS(Cart)=  0.00000173 RMS(Int)=  0.00039027
 Iteration  4 RMS(Cart)=  0.00000000 RMS(Int)=  0.00039027
 ITry= 1 IFail=0 DXMaxC= 1.46D-01 DCOld= 1.00D+10 DXMaxT= 3.00D-01 DXLimC= 3.00D+00 Rises=F
 ClnCor:  largest displacement from symmetrization is 1.21D-08 for atom     7.
 Variable       Old X    -DE/DX   Delta X   Delta X   Delta X     New X
                                 (Linear)    (Quad)   (Total)
    R1        3.07625   0.01977   0.00000   0.01346   0.01345   3.08970
    R2        4.53534   0.06738   0.00000   0.09383   0.09384   4.62919
    R3        2.36405   0.14326   0.00000   0.11708   0.11708   2.48113
    R4        2.36405   0.14326   0.00000   0.11708   0.11708   2.48113
    R5        2.79679   0.03561   0.00000   0.04175   0.04175   2.83854
    R6        3.07625   0.01977   0.00000   0.01346   0.01345   3.08970
    R7        2.36405   0.14326   0.00000   0.11708   0.11708   2.48113
    R8        2.36405   0.14326   0.00000   0.11708   0.11708   2.48113
    R9        2.79679   0.03561   0.00000   0.04175   0.04175   2.83854
    A1        2.27921  -0.00589   0.00000  -0.01092  -0.01094   2.26827
    A2        2.27921  -0.00589   0.00000  -0.01092  -0.01094   2.26827
    A3        2.31274  -0.04238   0.00000  -0.05172  -0.05169   2.26106
    A4        2.07101   0.01252   0.00000   0.02065   0.01986   2.09088
    A5        2.07101   0.01252   0.00000   0.02065   0.01986   2.09088
    A6        1.57080  -0.03318   0.00000  -0.03393  -0.03379   1.53701
    A7        1.72476   0.01179   0.00000   0.02184   0.02073   1.74549
    A8        1.11559   0.03844   0.00000   0.05379   0.05395   1.16954
    A9        1.11559   0.03844   0.00000   0.05379   0.05395   1.16954
   A10        2.07101   0.01252   0.00000   0.02065   0.01986   2.09088
   A11        2.07101   0.01252   0.00000   0.02065   0.01986   2.09088
   A12        1.57080  -0.03318   0.00000  -0.03393  -0.03379   1.53701
   A13        2.27921  -0.00589   0.00000  -0.01092  -0.01094   2.26827
   A14        2.27921  -0.00589   0.00000  -0.01092  -0.01094   2.26827
   A15        2.31274  -0.04238   0.00000  -0.05172  -0.05169   2.26106
   A16        1.72476   0.01179   0.00000   0.02184   0.02073   1.74549
   A17        1.11559   0.03844   0.00000   0.05379   0.05395   1.16954
   A18        1.11559   0.03844   0.00000   0.05379   0.05395   1.16954
    D1        0.00000  -0.00000   0.00000  -0.00000  -0.00000   0.00000
    D2       -2.09200  -0.04108   0.00000  -0.07131  -0.07168  -2.16368
    D3       -1.04600  -0.02054   0.00000  -0.03566  -0.03584  -1.08184
    D4        2.09200   0.04108   0.00000   0.07131   0.07168   2.16368
    D5        0.00000   0.00000   0.00000   0.00000  -0.00000   0.00000
    D6        1.04600   0.02054   0.00000   0.03566   0.03584   1.08184
    D7        1.04600   0.02054   0.00000   0.03566   0.03584   1.08184
    D8       -1.04600  -0.02054   0.00000  -0.03566  -0.03584  -1.08184
    D9        0.00000   0.00000   0.00000   0.00000   0.00000   0.00000
         Item               Value     Threshold  Converged?
 Maximum Force            0.143255     0.000450     NO 
 RMS     Force            0.054710     0.000300     NO 
 Maximum Displacement     0.146082     0.001800     NO 
 RMS     Displacement     0.063794     0.001200     NO 
 Predicted change in Energy=-9.011010D-02
 Lowest energy point so far.  Saving SCF results.
 GradGradGradGradGradGradGradGradGradGradGradGradGradGradGradGradGradGrad

 Leave Link  103 at Wed Jun 24 00:57:39 2026, MaxMem=  1879048192 cpu:               0.0 elap:               0.0
 (Enter /CH/g16/l202.exe)
                          Input orientation:                          
 ---------------------------------------------------------------------
 Center     Atomic      Atomic             Coordinates (Angstroms)
 Number     Number       Type             X           Y           Z
 ---------------------------------------------------------------------
      1         14           0       -0.024830   -0.000000    0.000006
      2          8           0        1.200000    0.000000    1.083062
      3         14           0        2.424830    0.000000    0.000006
      4          1           0       -0.677303    1.005853   -0.535155
      5          1           0       -0.677303   -1.005853   -0.535155
      6          1           0        0.025911   -0.000000   -1.501228
      7          1           0        3.077303    1.005853   -0.535155
      8          1           0        3.077303   -1.005853   -0.535155
      9          1           0        2.374089   -0.000000   -1.501228
 ---------------------------------------------------------------------
                    Distance matrix (angstroms):
                    1          2          3          4          5
     1  Si   0.000000
     2  O    1.634998   0.000000
     3  Si   2.449659   1.634998   0.000000
     4  H    1.312958   2.674814   3.304749   0.000000
     5  H    1.312958   2.674814   3.304749   2.011706   0.000000
     6  H    1.502091   2.838492   2.829931   1.561905   1.561905
     7  H    3.304749   2.674814   1.312958   3.754606   4.259581
     8  H    3.304749   2.674814   1.312958   4.259581   3.754606
     9  H    2.829931   2.838492   1.502091   3.355001   3.355001
                    6          7          8          9
     6  H    0.000000
     7  H    3.355001   0.000000
     8  H    3.355001   2.011706   0.000000
     9  H    2.348177   1.561905   1.561905   0.000000
 Stoichiometry    H6OSi2
 Framework group  C2V[C2(O),SGV(H2Si2),X(H4)]
 Deg. of freedom     7
 Full point group                 C2V     NOp   4
 RotChk:  IX=0 Diff= 4.47D-16
 Largest Abelian subgroup         C2V     NOp   4
 Largest concise Abelian subgroup C2V     NOp   4
                         Standard orientation:                         
 ---------------------------------------------------------------------
 Center     Atomic      Atomic             Coordinates (Angstroms)
 Number     Number       Type             X           Y           Z
 ---------------------------------------------------------------------
      1         14           0        0.000000    1.224830   -0.083842
      2          8           0        0.000000   -0.000000    0.999215
      3         14           0       -0.000000   -1.224830   -0.083842
      4          1           0        1.005853    1.877303   -0.619002
      5          1           0       -1.005853    1.877303   -0.619002
      6          1           0        0.000000    1.174089   -1.585075
      7          1           0        1.005853   -1.877303   -0.619002
      8          1           0       -1.005853   -1.877303   -0.619002
      9          1           0       -0.000000   -1.174089   -1.585075
 ---------------------------------------------------------------------
 Rotational constants (GHZ):          18.9646528           4.8128145           4.0921982
 Leave Link  202 at Wed Jun 24 00:57:39 2026, MaxMem=  1879048192 cpu:               0.0 elap:               0.0
 (Enter /CH/g16/l301.exe)
 Standard basis: def2SVP (5D, 7F)
 Ernie: Thresh=  0.10000D-02 Tol=  0.10000D-05 Strict=F.
 There are    31 symmetry adapted cartesian basis functions of A1  symmetry.
 There are    12 symmetry adapted cartesian basis functions of A2  symmetry.
 There are    14 symmetry adapted cartesian basis functions of B1  symmetry.
 There are    26 symmetry adapted cartesian basis functions of B2  symmetry.
 There are    29 symmetry adapted basis functions of A1  symmetry.
 There are    12 symmetry adapted basis functions of A2  symmetry.
 There are    14 symmetry adapted basis functions of B1  symmetry.
 There are    25 symmetry adapted basis functions of B2  symmetry.
    80 basis functions,   141 primitive gaussians,    83 cartesian basis functions
    21 alpha electrons       21 beta electrons
       nuclear repulsion energy       174.0580640330 Hartrees.
 IExCor=  402 DFT=T Ex+Corr=B3LYP ExCW=0 ScaHFX=  0.200000
 ScaDFX=  0.800000  0.720000  1.000000  0.810000 ScalE2=  1.000000  1.000000
 IRadAn=      5 IRanWt=     -1 IRanGd=            0 ICorTp=0 IEmpDi=141
 NAtoms=    9 NActive=    9 NUniq=    4 SFac= 4.00D+00 NAtFMM=   60 NAOKFM=F Big=F
 Integral buffers will be    131072 words long.
 Raffenetti 2 integral format.
 Two-electron integral symmetry is turned on.
 R6Disp:  Grimme-D3(BJ) Dispersion energy=       -0.0122780093 Hartrees.
 Nuclear repulsion after empirical dispersion term =      174.0457860237 Hartrees.
 ------------------------------------------------------------------------------
 Polarizable Continuum Model (PCM)
 =================================
 Model                : PCM.
 Atomic radii         : SMD-Coulomb.
 Polarization charges : Total charges.
 Charge compensation  : None.
 Solution method      : On-the-fly selection.
 Cavity type          : VdW (van der Waals Surface) (Alpha=1.000).
 Cavity algorithm     : GePol (No added spheres)
                        Default sphere list used, NSphG=    9.
                        Lebedev-Laikov grids with approx.  5.0 points / Ang**2.
                        Smoothing algorithm: York/Karplus (Gamma=1.0000).
                        Polarization charges: spherical gaussians, with
                                              point-specific exponents (IZeta= 3).
                        Self-potential: point-specific (ISelfS= 7).
                        Self-field    : sphere-specific E.n sum rule (ISelfD= 2).
 1st derivatives      : Analytical E(r).r(x)/FMM algorithm (CHGder, D1EAlg=3).
                        Cavity 1st derivative terms included.
 Solvent              : TetraHydroFuran, Eps=   7.425700 Eps(inf)=   1.974025
 ------------------------------------------------------------------------------
 Spheres list:
 ISph  on   Nord     Re0    Alpha      Xe            Ye            Ze
    1  Si      1    2.4700  1.000      0.000000      1.224830     -0.083842
    2   O      2    2.2940  1.000      0.000000     -0.000000      0.999215
    3  Si      3    2.4700  1.000     -0.000000     -1.224830     -0.083842
    4   H      4    1.2000  1.000      1.005853      1.877303     -0.619002
    5   H      5    1.2000  1.000     -1.005853      1.877303     -0.619002
    6   H      6    1.2000  1.000      0.000000      1.174089     -1.585075
    7   H      7    1.2000  1.000      1.005853     -1.877303     -0.619002
    8   H      8    1.2000  1.000     -1.005853     -1.877303     -0.619002
    9   H      9    1.2000  1.000     -0.000000     -1.174089     -1.585075
 ------------------------------------------------------------------------------
 GePol: Number of generator spheres                  =       9
 GePol: Total number of spheres                      =       9
 GePol: Number of exposed spheres                    =       9 (100.00%)
 GePol: Number of points                             =     863
 GePol: Average weight of points                     =       0.14
 GePol: Minimum weight of points                     =   0.84D-06
 GePol: Maximum weight of points                     =    0.19536
 GePol: Number of points with low weight             =      30
 GePol: Fraction of low-weight points (<1% of avg)   =       3.48%
 GePol: Cavity surface area                          =    122.085 Ang**2
 GePol: Cavity volume                                =    117.190 Ang**3
 ------------------------------------------------------------------------------
 Atomic radii for non-electrostatic terms: SMD-CDS.
 ------------------------------------------------------------------------------
 PCM non-electrostatic energy =        -0.0006425796 Hartrees.
 Nuclear repulsion after PCM non-electrostatic terms =      174.0451434441 Hartrees.
 Leave Link  301 at Wed Jun 24 00:57:40 2026, MaxMem=  1879048192 cpu:               0.1 elap:               0.0
 (Enter /CH/g16/l302.exe)
 NPDir=0 NMtPBC=     1 NCelOv=     1 NCel=       1 NClECP=     1 NCelD=      1
         NCelK=      1 NCelE2=     1 NClLst=     1 CellRange=     0.0.
 One-electron integrals computed using PRISM.
 One-electron integral symmetry used in STVInt
   4 Symmetry operations used in ECPInt.
 ECPInt:  NShTT=     820 NPrTT=    3158 LenC2=     820 LenP2D=    2702.
 LDataN:  DoStor=T MaxTD1= 4 Len=   56
 NBasis=    80 RedAO= T EigKep=  1.78D-03  NBF=    29    12    14    25
 NBsUse=    80 1.00D-06 EigRej= -1.00D+00 NBFU=    29    12    14    25
 Precomputing XC quadrature grid using
 IXCGrd= 4 IRadAn=           5 IRanWt=          -1 IRanGd=           0 AccXCQ= 0.00D+00.
 Generated NRdTot=       0 NPtTot=           0 NUsed=           0 NTot=          32
 NSgBfM=    83    83    83    83    83 MxSgAt=     9 MxSgA2=     9.
 Leave Link  302 at Wed Jun 24 00:57:40 2026, MaxMem=  1879048192 cpu:               0.3 elap:               0.1
 (Enter /CH/g16/l303.exe)
 DipDrv:  MaxL=1.
 Leave Link  303 at Wed Jun 24 00:57:40 2026, MaxMem=  1879048192 cpu:               0.0 elap:               0.0
 (Enter /CH/g16/l401.exe)
 Initial guess from the checkpoint file:  "disiloxane.chk"
 B after Tr=     0.000000    0.000000   -0.000000
         Rot=    1.000000   -0.000000    0.000000    0.000000 Ang=   0.00 deg.
 Guess basis will be translated and rotated to current coordinates.
 JPrj=2 DoOrth=T DoCkMO=T.
 Initial guess orbital symmetries:
       Occupied  (A1) (B2) (A1) (B2) (A1) (A1) (B2) (A1) (B2) (B1)
                 (A2) (A1) (A1) (B2) (B2) (A1) (B1) (A2) (B1) (A1)
                 (B2)
       Virtual   (A1) (A1) (B2) (B2) (B1) (A1) (A2) (B2) (A1) (B2)
                 (B1) (A2) (A1) (B1) (B2) (A1) (A1) (A2) (B2) (B1)
                 (A2) (A1) (B2) (B2) (A1) (A1) (B2) (B2) (A1) (B1)
                 (B2) (A1) (A2) (B1) (B2) (A2) (A1) (B1) (A1) (B1)
                 (B2) (A2) (A1) (B2) (A1) (B1) (A2) (B2) (A1) (B2)
                 (B1) (A2) (A1) (B2) (A1) (A2) (B1) (A1) (B2)
 The electronic state of the initial guess is 1-A1.
 Generating alternative initial guess.
 ExpMin= 7.80D-02 ExpMax= 6.90D+03 ExpMxC= 1.04D+03 IAcc=3 IRadAn=         5 AccDes= 0.00D+00
 Harris functional with IExCor=  402 and IRadAn=       5 diagonalized for initial guess.
 HarFok:  IExCor=  402 AccDes= 0.00D+00 IRadAn=         5 IDoV= 1 UseB2=F ITyADJ=14
 ICtDFT=  3500011 ScaDFX=  1.000000  1.000000  1.000000  1.000000
 FoFCou: FMM=F IPFlag=           0 FMFlag=      100000 FMFlg1=           0
         NFxFlg=           0 DoJE=T BraDBF=F KetDBF=T FulRan=T
         wScrn=  0.000000 ICntrl=       500 IOpCl=  0 I1Cent=   200000004 NGrid=           0
         NMat0=    1 NMatS0=      1 NMatT0=    0 NMatD0=    1 NMtDS0=    0 NMtDT0=    0
 Petite list used in FoFCou.
 Harris En= -657.377924374869    
 Leave Link  401 at Wed Jun 24 00:57:40 2026, MaxMem=  1879048192 cpu:               0.6 elap:               0.1
 (Enter /CH/g16/l502.exe)
 Keep R1 ints in memory in symmetry-blocked form, NReq=12508873.
 FoFCou: FMM=F IPFlag=           0 FMFlag=           0 FMFlg1=           0
         NFxFlg=           0 DoJE=F BraDBF=F KetDBF=F FulRan=T
         wScrn=  0.000000 ICntrl=       600 IOpCl=  0 I1Cent=           0 NGrid=           0
         NMat0=    1 NMatS0=   3240 NMatT0=    0 NMatD0=    1 NMtDS0=    0 NMtDT0=    0
 Petite list used in FoFCou.
 Closed shell SCF:
 Using DIIS extrapolation, IDIIS=  1040.
 NGot=  1879048192 LenX=  1877685988 LenY=  1877678658
 Requested convergence on RMS density matrix=1.00D-08 within 128 cycles.
 Requested convergence on MAX density matrix=1.00D-06.
 Requested convergence on             energy=1.00D-06.
 No special actions if energy rises.

 Cycle   1  Pass 1  IDiag  1:
 Inv3:  Mode=1 IEnd=     2234307.
 Iteration    1 A*A^-1 deviation from unit magnitude is 3.11D-15 for    583.
 Iteration    1 A*A^-1 deviation from orthogonality  is 2.31D-15 for    835     89.
 Iteration    1 A^-1*A deviation from unit magnitude is 3.11D-15 for    583.
 Iteration    1 A^-1*A deviation from orthogonality  is 2.53D-15 for    389     18.
 E= -657.402217331663    
 DIIS: error= 7.41D-03 at cycle   1 NSaved=   1.
 NSaved= 1 IEnMin= 1 EnMin= -657.402217331663     IErMin= 1 ErrMin= 7.41D-03
 ErrMax= 7.41D-03  0.00D+00 EMaxC= 1.00D-01 BMatC= 5.07D-03 BMatP= 5.07D-03
 IDIUse=3 WtCom= 9.26D-01 WtEn= 7.41D-02
 Coeff-Com:  0.100D+01
 Coeff-En:   0.100D+01
 Coeff:      0.100D+01
 Gap=     0.159 Goal=   None    Shift=    0.000
 GapD=    0.159 DampG=1.000 DampE=1.000 DampFc=1.0000 IDamp=-1.
 RMSDP=1.58D-03 MaxDP=1.60D-02              OVMax= 1.84D-02

 Cycle   2  Pass 1  IDiag  1:
 E= -657.405478185128     Delta-E=       -0.003260853466 Rises=F Damp=F
 DIIS: error= 1.56D-03 at cycle   2 NSaved=   2.
 NSaved= 2 IEnMin= 2 EnMin= -657.405478185128     IErMin= 2 ErrMin= 1.56D-03
 ErrMax= 1.56D-03  0.00D+00 EMaxC= 1.00D-01 BMatC= 1.43D-04 BMatP= 5.07D-03
 IDIUse=3 WtCom= 9.84D-01 WtEn= 1.56D-02
 Coeff-Com:  0.528D-01 0.947D+00
 Coeff-En:   0.000D+00 0.100D+01
 Coeff:      0.520D-01 0.948D+00
 Gap=     0.159 Goal=   None    Shift=    0.000
 RMSDP=4.65D-04 MaxDP=4.91D-03 DE=-3.26D-03 OVMax= 9.14D-03

 Cycle   3  Pass 1  IDiag  1:
 E= -657.405410242816     Delta-E=        0.000067942312 Rises=F Damp=F
 DIIS: error= 2.39D-03 at cycle   3 NSaved=   3.
 NSaved= 3 IEnMin= 2 EnMin= -657.405478185128     IErMin= 2 ErrMin= 1.56D-03
 ErrMax= 2.39D-03  0.00D+00 EMaxC= 1.00D-01 BMatC= 3.16D-04 BMatP= 1.43D-04
 IDIUse=3 WtCom= 1.70D-01 WtEn= 8.30D-01
 Coeff-Com:  0.947D-02 0.605D+00 0.386D+00
 Coeff-En:   0.000D+00 0.572D+00 0.428D+00
 Coeff:      0.161D-02 0.577D+00 0.421D+00
 Gap=     0.157 Goal=   None    Shift=    0.000
 RMSDP=2.01D-04 MaxDP=4.34D-03 DE= 6.79D-05 OVMax= 5.44D-03

 Cycle   4  Pass 1  IDiag  1:
 E= -657.405671980707     Delta-E=       -0.000261737890 Rises=F Damp=F
 DIIS: error= 4.39D-04 at cycle   4 NSaved=   4.
 NSaved= 4 IEnMin= 4 EnMin= -657.405671980707     IErMin= 4 ErrMin= 4.39D-04
 ErrMax= 4.39D-04  0.00D+00 EMaxC= 1.00D-01 BMatC= 1.53D-05 BMatP= 1.43D-04
 IDIUse=3 WtCom= 9.96D-01 WtEn= 4.39D-03
 Coeff-Com: -0.453D-02 0.163D+00 0.211D+00 0.630D+00
 Coeff-En:   0.000D+00 0.000D+00 0.000D+00 0.100D+01
 Coeff:     -0.451D-02 0.163D+00 0.210D+00 0.631D+00
 Gap=     0.157 Goal=   None    Shift=    0.000
 RMSDP=3.67D-05 MaxDP=8.03D-04 DE=-2.62D-04 OVMax= 8.67D-04

 Cycle   5  Pass 1  IDiag  1:
 E= -657.405683735798     Delta-E=       -0.000011755091 Rises=F Damp=F
 DIIS: error= 2.82D-05 at cycle   5 NSaved=   5.
 NSaved= 5 IEnMin= 5 EnMin= -657.405683735798     IErMin= 5 ErrMin= 2.82D-05
 ErrMax= 2.82D-05  0.00D+00 EMaxC= 1.00D-01 BMatC= 6.84D-08 BMatP= 1.53D-05
 IDIUse=1 WtCom= 1.00D+00 WtEn= 0.00D+00
 Coeff-Com: -0.103D-02 0.190D-01 0.362D-01 0.119D+00 0.827D+00
 Coeff:     -0.103D-02 0.190D-01 0.362D-01 0.119D+00 0.827D+00
 Gap=     0.158 Goal=   None    Shift=    0.000
 RMSDP=9.83D-06 MaxDP=1.33D-04 DE=-1.18D-05 OVMax= 3.03D-04

 Cycle   6  Pass 1  IDiag  1:
 E= -657.405683869099     Delta-E=       -0.000000133301 Rises=F Damp=F
 DIIS: error= 1.08D-05 at cycle   6 NSaved=   6.
 NSaved= 6 IEnMin= 6 EnMin= -657.405683869099     IErMin= 6 ErrMin= 1.08D-05
 ErrMax= 1.08D-05  0.00D+00 EMaxC= 1.00D-01 BMatC= 9.98D-09 BMatP= 6.84D-08
 IDIUse=1 WtCom= 1.00D+00 WtEn= 0.00D+00
 Coeff-Com: -0.717D-04-0.486D-02-0.370D-02-0.690D-02 0.262D+00 0.753D+00
 Coeff:     -0.717D-04-0.486D-02-0.370D-02-0.690D-02 0.262D+00 0.753D+00
 Gap=     0.158 Goal=   None    Shift=    0.000
 RMSDP=2.92D-06 MaxDP=4.40D-05 DE=-1.33D-07 OVMax= 5.52D-05

 Cycle   7  Pass 1  IDiag  1:
 E= -657.405683885045     Delta-E=       -0.000000015946 Rises=F Damp=F
 DIIS: error= 1.23D-06 at cycle   7 NSaved=   7.
 NSaved= 7 IEnMin= 7 EnMin= -657.405683885045     IErMin= 7 ErrMin= 1.23D-06
 ErrMax= 1.23D-06  0.00D+00 EMaxC= 1.00D-01 BMatC= 2.11D-10 BMatP= 9.98D-09
 IDIUse=1 WtCom= 1.00D+00 WtEn= 0.00D+00
 Coeff-Com:  0.374D-04-0.237D-02-0.301D-02-0.817D-02 0.323D-01 0.169D+00
 Coeff-Com:  0.812D+00
 Coeff:      0.374D-04-0.237D-02-0.301D-02-0.817D-02 0.323D-01 0.169D+00
 Coeff:      0.812D+00
 Gap=     0.158 Goal=   None    Shift=    0.000
 RMSDP=3.82D-07 MaxDP=7.89D-06 DE=-1.59D-08 OVMax= 7.98D-06

 Cycle   8  Pass 1  IDiag  1:
 E= -657.405683885336     Delta-E=       -0.000000000291 Rises=F Damp=F
 DIIS: error= 3.15D-07 at cycle   8 NSaved=   8.
 NSaved= 8 IEnMin= 8 EnMin= -657.405683885336     IErMin= 8 ErrMin= 3.15D-07
 ErrMax= 3.15D-07  0.00D+00 EMaxC= 1.00D-01 BMatC= 9.09D-12 BMatP= 2.11D-10
 IDIUse=1 WtCom= 1.00D+00 WtEn= 0.00D+00
 Coeff-Com:  0.873D-05-0.266D-03-0.396D-03-0.120D-02 0.725D-03 0.139D-01
 Coeff-Com:  0.194D+00 0.793D+00
 Coeff:      0.873D-05-0.266D-03-0.396D-03-0.120D-02 0.725D-03 0.139D-01
 Coeff:      0.194D+00 0.793D+00
 Gap=     0.158 Goal=   None    Shift=    0.000
 RMSDP=1.00D-07 MaxDP=1.40D-06 DE=-2.91D-10 OVMax= 2.31D-06

 Cycle   9  Pass 1  IDiag  1:
 E= -657.405683885355     Delta-E=       -0.000000000018 Rises=F Damp=F
 DIIS: error= 8.91D-08 at cycle   9 NSaved=   9.
 NSaved= 9 IEnMin= 9 EnMin= -657.405683885355     IErMin= 9 ErrMin= 8.91D-08
 ErrMax= 8.91D-08  0.00D+00 EMaxC= 1.00D-01 BMatC= 5.33D-13 BMatP= 9.09D-12
 IDIUse=1 WtCom= 1.00D+00 WtEn= 0.00D+00
 Coeff-Com:  0.118D-06 0.775D-04 0.744D-04 0.142D-03-0.277D-02-0.905D-02
 Coeff-Com: -0.932D-02 0.185D+00 0.836D+00
 Coeff:      0.118D-06 0.775D-04 0.744D-04 0.142D-03-0.277D-02-0.905D-02
 Coeff:     -0.932D-02 0.185D+00 0.836D+00
 Gap=     0.158 Goal=   None    Shift=    0.000
 RMSDP=1.56D-08 MaxDP=2.06D-07 DE=-1.83D-11 OVMax= 3.68D-07

 Cycle  10  Pass 1  IDiag  1:
 E= -657.405683885352     Delta-E=        0.000000000003 Rises=F Damp=F
 DIIS: error= 8.23D-09 at cycle  10 NSaved=  10.
 NSaved=10 IEnMin= 9 EnMin= -657.405683885355     IErMin=10 ErrMin= 8.23D-09
 ErrMax= 8.23D-09  0.00D+00 EMaxC= 1.00D-01 BMatC= 6.53D-15 BMatP= 5.33D-13
 IDIUse=1 WtCom= 1.00D+00 WtEn= 0.00D+00
 Coeff-Com: -0.162D-06 0.858D-05 0.122D-04 0.208D-04-0.115D-03-0.333D-03
 Coeff-Com: -0.483D-02-0.192D-02 0.446D-01 0.963D+00
 Coeff:     -0.162D-06 0.858D-05 0.122D-04 0.208D-04-0.115D-03-0.333D-03
 Coeff:     -0.483D-02-0.192D-02 0.446D-01 0.963D+00
 Gap=     0.158 Goal=   None    Shift=    0.000
 RMSDP=2.77D-09 MaxDP=3.60D-08 DE= 2.73D-12 OVMax= 6.49D-08

 Error on total polarization charges =  0.02173
 SCF Done:  E(RB3LYP) =  -657.405683885     A.U. after   10 cycles
            NFock= 10  Conv=0.28D-08     -V/T= 2.0020
 KE= 6.561185758883D+02 PE=-1.910481774562D+03 EE= 4.229123713442D+02
 SMD-CDS (non-electrostatic) energy       (kcal/mol) =      -0.40
 (included in total energy above)
 Leave Link  502 at Wed Jun 24 00:57:41 2026, MaxMem=  1879048192 cpu:               6.1 elap:               1.0
 (Enter /CH/g16/l701.exe)
 ... and contract with generalized density number  0.
 Compute integral first derivatives.
 R6Disp: Adding Grimme-D3(BJ) dispersion energy 1st derivatives to the gradient.
   4 Symmetry operations used in ECPInt.
 ECPInt:  NShTT=     820 NPrTT=    3158 LenC2=     820 LenP2D=    2702.
 LDataN:  DoStor=T MaxTD1= 5 Len=  102
 D1PCM: PCM CHGder 1st derivatives, ID1Alg=3 FixD1E=F DoIter=F DoCFld=F I1PDM=0.
 GePol: Maximum number of non-zero 1st derivatives   =     374
 Leave Link  701 at Wed Jun 24 00:57:41 2026, MaxMem=  1879048192 cpu:               1.5 elap:               0.2
 (Enter /CH/g16/l702.exe)
 L702 exits ... SP integral derivatives will be done elsewhere.
 Leave Link  702 at Wed Jun 24 00:57:41 2026, MaxMem=  1879048192 cpu:               0.0 elap:               0.0
 (Enter /CH/g16/l703.exe)
 Integral derivatives from FoFJK, PRISM(SPDF).
 Compute integral first derivatives, UseDBF=F ICtDFT=           0.
 Calling FoFJK, ICntrl=      2127 FMM=F ISym2X=1 I1Cent= 0 IOpClX= 0 NMat=1 NMatS=1 NMatT=0.
 FoFJK:  IHMeth= 1 ICntrl=    2127 DoSepK=F KAlg= 0 I1Cent=           0 FoldK=F
 IRaf=         0 NMat=       1 IRICut=       1 DoRegI=T DoRafI=F ISym2E= 1 IDoP0=0 IntGTp=1.
 FoFCou: FMM=F IPFlag=           0 FMFlag=      100000 FMFlg1=         800
         NFxFlg=           0 DoJE=F BraDBF=F KetDBF=F FulRan=T
         wScrn=  0.000000 ICntrl=      2127 IOpCl=  0 I1Cent=           0 NGrid=           0
         NMat0=    1 NMatS0=      1 NMatT0=    0 NMatD0=    1 NMtDS0=    0 NMtDT0=    0
 Petite list used in FoFCou.
 Leave Link  703 at Wed Jun 24 00:57:41 2026, MaxMem=  1879048192 cpu:               0.8 elap:               0.1
 (Enter /CH/g16/l716.exe)
 Dipole        = 8.38509890D-16 2.22044605D-15 4.69277365D-01
 ***** Axes restored to original set *****
 -------------------------------------------------------------------
 Center     Atomic                   Forces (Hartrees/Bohr)
 Number     Number              X              Y              Z
 -------------------------------------------------------------------
      1       14          -0.017402964   -0.000000000    0.010141422
      2        8           0.000000000   -0.000000000    0.001422407
      3       14           0.017402964   -0.000000000    0.010141422
      4        1          -0.049446390    0.090380047    0.005082011
      5        1          -0.049446390   -0.090380047    0.005082011
      6        1           0.037341543    0.000000000   -0.021016647
      7        1           0.049446390    0.090380047    0.005082011
      8        1           0.049446390   -0.090380047    0.005082011
      9        1          -0.037341543   -0.000000000   -0.021016647
 -------------------------------------------------------------------
 Cartesian Forces:  Max     0.090380047 RMS     0.041741235
 Leave Link  716 at Wed Jun 24 00:57:41 2026, MaxMem=  1879048192 cpu:               0.0 elap:               0.0
 (Enter /CH/g16/l103.exe)

 GradGradGradGradGradGradGradGradGradGradGradGradGradGradGradGradGradGrad
 Berny optimization.
 Using GEDIIS/GDIIS optimizer.
 FormGI is forming the generalized inverse of G from B-inverse, IUseBI=4.
 Internal  Forces:  Max     0.091740796 RMS     0.038688114
 Search for a local minimum.
 Step number   2 out of a maximum of   46
 All quantities printed in internal units (Hartrees-Bohrs-Radians)
 RMS Force = .38688D-01 SwitMx=.10000D-02 MixMth= 1
 Mixed Optimization -- RFO/linear search
 Update second derivatives using D2CorX and points    1    2
 DE= -8.80D-02 DEPred=-9.01D-02 R= 9.77D-01
 TightC=F SS=  1.41D+00  RLast= 3.24D-01 DXNew= 5.0454D-01 9.7251D-01
 Trust test= 9.77D-01 RLast= 3.24D-01 DXMaxT set to 5.05D-01
 ITU=  1  0
 Use linear search instead of GDIIS.
 Linear search step of   0.599 exceeds DXMaxT=   0.505 but not scaled.
 Quartic linear search produced a step of  2.00000.
 Iteration  1 RMS(Cart)=  0.11979073 RMS(Int)=  0.01035295
 Iteration  2 RMS(Cart)=  0.01019273 RMS(Int)=  0.00224489
 Iteration  3 RMS(Cart)=  0.00002570 RMS(Int)=  0.00224468
 Iteration  4 RMS(Cart)=  0.00000009 RMS(Int)=  0.00224468
 ITry= 1 IFail=0 DXMaxC= 2.92D-01 DCOld= 1.00D+10 DXMaxT= 5.05D-01 DXLimC= 3.00D+00 Rises=F
 ClnCor:  largest displacement from symmetrization is 1.97D-09 for atom     9.
 Variable       Old X    -DE/DX   Delta X   Delta X   Delta X     New X
                                 (Linear)    (Quad)   (Total)
    R1        3.08970   0.01447   0.02690   0.00000   0.02693   3.11663
    R2        4.62919   0.06026   0.18769   0.00000   0.18763   4.81682
    R3        2.48113   0.09174   0.23417   0.00000   0.23417   2.71530
    R4        2.48113   0.09174   0.23417   0.00000   0.23417   2.71530
    R5        2.83854   0.02227   0.08349   0.00000   0.08349   2.92203
    R6        3.08970   0.01447   0.02690   0.00000   0.02693   3.11663
    R7        2.48113   0.09174   0.23417   0.00000   0.23417   2.71530
    R8        2.48113   0.09174   0.23417   0.00000   0.23417   2.71530
    R9        2.83854   0.02227   0.08349   0.00000   0.08349   2.92203
    A1        2.26827  -0.00577  -0.02189   0.00000  -0.02194   2.24633
    A2        2.26827  -0.00577  -0.02189   0.00000  -0.02194   2.24633
    A3        2.26106  -0.03697  -0.10338   0.00000  -0.10349   2.15757
    A4        2.09088   0.01154   0.03972   0.00000   0.03493   2.12580
    A5        2.09088   0.01154   0.03972   0.00000   0.03493   2.12580
    A6        1.53701  -0.02754  -0.06757   0.00000  -0.06706   1.46995
    A7        1.74549   0.01014   0.04147   0.00000   0.03531   1.78080
    A8        1.16954   0.03554   0.10789   0.00000   0.10824   1.27777
    A9        1.16954   0.03554   0.10789   0.00000   0.10824   1.27777
   A10        2.09088   0.01154   0.03972   0.00000   0.03493   2.12580
   A11        2.09088   0.01154   0.03972   0.00000   0.03493   2.12580
   A12        1.53701  -0.02754  -0.06757   0.00000  -0.06706   1.46995
   A13        2.26827  -0.00577  -0.02189   0.00000  -0.02194   2.24633
   A14        2.26827  -0.00577  -0.02189   0.00000  -0.02194   2.24633
   A15        2.26106  -0.03697  -0.10338   0.00000  -0.10349   2.15757
   A16        1.74549   0.01014   0.04147   0.00000   0.03531   1.78080
   A17        1.16954   0.03554   0.10789   0.00000   0.10824   1.27777
   A18        1.16954   0.03554   0.10789   0.00000   0.10824   1.27777
    D1        0.00000  -0.00000   0.00000   0.00000  -0.00000   0.00000
    D2       -2.16368  -0.04083  -0.14336   0.00000  -0.14540  -2.30908
    D3       -1.08184  -0.02042  -0.07168   0.00000  -0.07270  -1.15454
    D4        2.16368   0.04083   0.14336   0.00000   0.14540   2.30908
    D5        0.00000   0.00000   0.00000   0.00000  -0.00000   0.00000
    D6        1.08184   0.02042   0.07168   0.00000   0.07270   1.15454
    D7        1.08184   0.02042   0.07168   0.00000   0.07270   1.15454
    D8       -1.08184  -0.02042  -0.07168   0.00000  -0.07270  -1.15454
    D9        0.00000  -0.00000   0.00000   0.00000  -0.00000   0.00000
         Item               Value     Threshold  Converged?
 Maximum Force            0.091741     0.000450     NO 
 RMS     Force            0.038688     0.000300     NO 
 Maximum Displacement     0.291648     0.001800     NO 
 RMS     Displacement     0.128421     0.001200     NO 
 Predicted change in Energy=-9.353638D-02
 Lowest energy point so far.  Saving SCF results.
 GradGradGradGradGradGradGradGradGradGradGradGradGradGradGradGradGradGrad

 Leave Link  103 at Wed Jun 24 00:57:41 2026, MaxMem=  1879048192 cpu:               0.0 elap:               0.0
 (Enter /CH/g16/l202.exe)
                          Input orientation:                          
 ---------------------------------------------------------------------
 Center     Atomic      Atomic             Coordinates (Angstroms)
 Number     Number       Type             X           Y           Z
 ---------------------------------------------------------------------
      1         14           0       -0.074475   -0.000000   -0.006094
      2          8           0        1.200000    0.000000    1.040683
      3         14           0        2.474475   -0.000000   -0.006094
      4          1           0       -0.831637    1.116916   -0.499868
      5          1           0       -0.831637   -1.116916   -0.499868
      6          1           0        0.081197   -0.000000   -1.544510
      7          1           0        3.231637    1.116916   -0.499868
      8          1           0        3.231637   -1.116916   -0.499868
      9          1           0        2.318803   -0.000000   -1.544510
 ---------------------------------------------------------------------
                    Distance matrix (angstroms):
                    1          2          3          4          5
     1  Si   0.000000
     2  O    1.649252   0.000000
     3  Si   2.548951   1.649252   0.000000
     4  H    1.436874   2.783585   3.524442   0.000000
     5  H    1.436874   2.783585   3.524442   2.233832   0.000000
     6  H    1.546272   2.816904   2.845085   1.781023   1.781023
     7  H    3.524442   2.783585   1.436874   4.063273   4.636830
     8  H    3.524442   2.783585   1.436874   4.636830   4.063273
     9  H    2.845085   2.816904   1.546272   3.502006   3.502006
                    6          7          8          9
     6  H    0.000000
     7  H    3.502006   0.000000
     8  H    3.502006   2.233832   0.000000
     9  H    2.237606   1.781023   1.781023   0.000000
 Stoichiometry    H6OSi2
 Framework group  C2V[C2(O),SGV(H2Si2),X(H4)]
 Deg. of freedom     7
 Full point group                 C2V     NOp   4
 RotChk:  IX=0 Diff= 1.04D-15
 Largest Abelian subgroup         C2V     NOp   4
 Largest concise Abelian subgroup C2V     NOp   4
                         Standard orientation:                         
 ---------------------------------------------------------------------
 Center     Atomic      Atomic             Coordinates (Angstroms)
 Number     Number       Type             X           Y           Z
 ---------------------------------------------------------------------
      1         14           0        0.000000    1.274475   -0.079102
      2          8           0       -0.000000    0.000000    0.967675
      3         14           0       -0.000000   -1.274475   -0.079102
      4          1           0        1.116916    2.031637   -0.572876
      5          1           0       -1.116916    2.031637   -0.572876
      6          1           0        0.000000    1.118803   -1.617518
      7          1           0        1.116916   -2.031637   -0.572876
      8          1           0       -1.116916   -2.031637   -0.572876
      9          1           0       -0.000000   -1.118803   -1.617518
 ---------------------------------------------------------------------
 Rotational constants (GHZ):          19.0220098           4.3916739           3.8406559
 Leave Link  202 at Wed Jun 24 00:57:41 2026, MaxMem=  1879048192 cpu:               0.0 elap:               0.0
 (Enter /CH/g16/l301.exe)
 Standard basis: def2SVP (5D, 7F)
 Ernie: Thresh=  0.10000D-02 Tol=  0.10000D-05 Strict=F.
 There are    31 symmetry adapted cartesian basis functions of A1  symmetry.
 There are    12 symmetry adapted cartesian basis functions of A2  symmetry.
 There are    14 symmetry adapted cartesian basis functions of B1  symmetry.
 There are    26 symmetry adapted cartesian basis functions of B2  symmetry.
 There are    29 symmetry adapted basis functions of A1  symmetry.
 There are    12 symmetry adapted basis functions of A2  symmetry.
 There are    14 symmetry adapted basis functions of B1  symmetry.
 There are    25 symmetry adapted basis functions of B2  symmetry.
    80 basis functions,   141 primitive gaussians,    83 cartesian basis functions
    21 alpha electrons       21 beta electrons
       nuclear repulsion energy       168.4664902082 Hartrees.
 IExCor=  402 DFT=T Ex+Corr=B3LYP ExCW=0 ScaHFX=  0.200000
 ScaDFX=  0.800000  0.720000  1.000000  0.810000 ScalE2=  1.000000  1.000000
 IRadAn=      5 IRanWt=     -1 IRanGd=            0 ICorTp=0 IEmpDi=141
 NAtoms=    9 NActive=    9 NUniq=    4 SFac= 4.00D+00 NAtFMM=   60 NAOKFM=F Big=F
 Integral buffers will be    131072 words long.
 Raffenetti 2 integral format.
 Two-electron integral symmetry is turned on.
 R6Disp:  Grimme-D3(BJ) Dispersion energy=       -0.0118616003 Hartrees.
 Nuclear repulsion after empirical dispersion term =      168.4546286079 Hartrees.
 ------------------------------------------------------------------------------
 Polarizable Continuum Model (PCM)
 =================================
 Model                : PCM.
 Atomic radii         : SMD-Coulomb.
 Polarization charges : Total charges.
 Charge compensation  : None.
 Solution method      : On-the-fly selection.
 Cavity type          : VdW (van der Waals Surface) (Alpha=1.000).
 Cavity algorithm     : GePol (No added spheres)
                        Default sphere list used, NSphG=    9.
                        Lebedev-Laikov grids with approx.  5.0 points / Ang**2.
                        Smoothing algorithm: York/Karplus (Gamma=1.0000).
                        Polarization charges: spherical gaussians, with
                                              point-specific exponents (IZeta= 3).
                        Self-potential: point-specific (ISelfS= 7).
                        Self-field    : sphere-specific E.n sum rule (ISelfD= 2).
 1st derivatives      : Analytical E(r).r(x)/FMM algorithm (CHGder, D1EAlg=3).
                        Cavity 1st derivative terms included.
 Solvent              : TetraHydroFuran, Eps=   7.425700 Eps(inf)=   1.974025
 ------------------------------------------------------------------------------
 Spheres list:
 ISph  on   Nord     Re0    Alpha      Xe            Ye            Ze
    1  Si      1    2.4700  1.000      0.000000      1.274475     -0.079102
    2   O      2    2.2940  1.000     -0.000000      0.000000      0.967675
    3  Si      3    2.4700  1.000     -0.000000     -1.274475     -0.079102
    4   H      4    1.2000  1.000      1.116916      2.031637     -0.572876
    5   H      5    1.2000  1.000     -1.116916      2.031637     -0.572876
    6   H      6    1.2000  1.000      0.000000      1.118803     -1.617518
    7   H      7    1.2000  1.000      1.116916     -2.031637     -0.572876
    8   H      8    1.2000  1.000     -1.116916     -2.031637     -0.572876
    9   H      9    1.2000  1.000     -0.000000     -1.118803     -1.617518
 ------------------------------------------------------------------------------
 GePol: Number of generator spheres                  =       9
 GePol: Total number of spheres                      =       9
 GePol: Number of exposed spheres                    =       9 (100.00%)
 GePol: Number of points                             =     911
 GePol: Average weight of points                     =       0.14
 GePol: Minimum weight of points                     =   0.15D-05
 GePol: Maximum weight of points                     =    0.19536
 GePol: Number of points with low weight             =      38
 GePol: Fraction of low-weight points (<1% of avg)   =       4.17%
 GePol: Cavity surface area                          =    123.987 Ang**2
 GePol: Cavity volume                                =    118.894 Ang**3
 ------------------------------------------------------------------------------
 Atomic radii for non-electrostatic terms: SMD-CDS.
 ------------------------------------------------------------------------------
 PCM non-electrostatic energy =        -0.0003969689 Hartrees.
 Nuclear repulsion after PCM non-electrostatic terms =      168.4542316390 Hartrees.
 Leave Link  301 at Wed Jun 24 00:57:41 2026, MaxMem=  1879048192 cpu:               0.1 elap:               0.0
 (Enter /CH/g16/l302.exe)
 NPDir=0 NMtPBC=     1 NCelOv=     1 NCel=       1 NClECP=     1 NCelD=      1
         NCelK=      1 NCelE2=     1 NClLst=     1 CellRange=     0.0.
 One-electron integrals computed using PRISM.
 One-electron integral symmetry used in STVInt
   4 Symmetry operations used in ECPInt.
 ECPInt:  NShTT=     820 NPrTT=    3158 LenC2=     820 LenP2D=    2674.
 LDataN:  DoStor=T MaxTD1= 4 Len=   56
 NBasis=    80 RedAO= T EigKep=  2.87D-03  NBF=    29    12    14    25
 NBsUse=    80 1.00D-06 EigRej= -1.00D+00 NBFU=    29    12    14    25
 Precomputing XC quadrature grid using
 IXCGrd= 4 IRadAn=           5 IRanWt=          -1 IRanGd=           0 AccXCQ= 0.00D+00.
 Generated NRdTot=       0 NPtTot=           0 NUsed=           0 NTot=          32
 NSgBfM=    83    83    83    83    83 MxSgAt=     9 MxSgA2=     9.
 Leave Link  302 at Wed Jun 24 00:57:41 2026, MaxMem=  1879048192 cpu:               0.3 elap:               0.1
 (Enter /CH/g16/l303.exe)
 DipDrv:  MaxL=1.
 Leave Link  303 at Wed Jun 24 00:57:41 2026, MaxMem=  1879048192 cpu:               0.0 elap:               0.0
 (Enter /CH/g16/l401.exe)
 Initial guess from the checkpoint file:  "disiloxane.chk"
 B after Tr=     0.000000   -0.000000    0.000000
         Rot=    1.000000    0.000000    0.000000    0.000000 Ang=   0.00 deg.
 Guess basis will be translated and rotated to current coordinates.
 JPrj=2 DoOrth=T DoCkMO=T.
 Initial guess orbital symmetries:
       Occupied  (A1) (B2) (A1) (B2) (A1) (A1) (B2) (A1) (B2) (B1)
                 (A2) (A1) (B2) (A1) (B2) (A1) (B1) (A2) (B1) (A1)
                 (B2)
       Virtual   (A1) (A1) (B2) (B2) (B1) (A1) (A2) (B2) (A1) (B1)
                 (B2) (A2) (A1) (B1) (B2) (A1) (A1) (A2) (B2) (B1)
                 (A2) (A1) (B2) (B2) (A1) (A1) (B2) (B2) (A1) (B1)
                 (B2) (A1) (A2) (B1) (B2) (A2) (A1) (B1) (A1) (B1)
                 (A2) (B2) (A1) (B1) (A2) (B2) (A1) (B2) (A1) (B2)
                 (B1) (A2) (A1) (B2) (A1) (A2) (B1) (A1) (B2)
 The electronic state of the initial guess is 1-A1.
 Generating alternative initial guess.
 ExpMin= 7.80D-02 ExpMax= 6.90D+03 ExpMxC= 1.04D+03 IAcc=3 IRadAn=         5 AccDes= 0.00D+00
 Harris functional with IExCor=  402 and IRadAn=       5 diagonalized for initial guess.
 HarFok:  IExCor=  402 AccDes= 0.00D+00 IRadAn=         5 IDoV= 1 UseB2=F ITyADJ=14
 ICtDFT=  3500011 ScaDFX=  1.000000  1.000000  1.000000  1.000000
 FoFCou: FMM=F IPFlag=           0 FMFlag=      100000 FMFlg1=           0
         NFxFlg=           0 DoJE=T BraDBF=F KetDBF=T FulRan=T
[...]
      9        1          -0.000000746    0.000000000   -0.000001168
 -------------------------------------------------------------------
 Cartesian Forces:  Max     0.000006125 RMS     0.000001861
 Leave Link  716 at Wed Jun 24 00:58:02 2026, MaxMem=  1879048192 cpu:               0.0 elap:               0.0
 (Enter /CH/g16/l103.exe)

 GradGradGradGradGradGradGradGradGradGradGradGradGradGradGradGradGradGrad
 Berny optimization.
 Using GEDIIS/GDIIS optimizer.
 FormGI is forming the generalized inverse of G from B-inverse, IUseBI=4.
 Internal  Forces:  Max     0.000003813 RMS     0.000001907
 Search for a local minimum.
 Step number  14 out of a maximum of   46
 All quantities printed in internal units (Hartrees-Bohrs-Radians)
 RMS Force = .19068D-05 SwitMx=.10000D-02 MixMth= 2
 Mixed Optimization -- En-DIIS/RFO-DIIS
 Swapping is turned off.
 Update second derivatives using D2CorX and points    8    9   10   11   12
                                                     13   14
 DE= -9.70D-08 DEPred=-8.52D-08 R= 1.14D+00
 Trust test= 1.14D+00 RLast= 3.23D-03 DXMaxT set to 1.70D+00
 ITU=  0  1  1  1  1  1  1  1  1  1  0  0  1  0
     Eigenvalues ---    0.00284   0.00836   0.05157   0.06475   0.06699
     Eigenvalues ---    0.06743   0.09654   0.15347   0.16000   0.16000
     Eigenvalues ---    0.16000   0.16000   0.16000   0.17773   0.18341
     Eigenvalues ---    0.20488   0.24191   0.35043   0.35043   0.35043
     Eigenvalues ---    0.45959
 En-DIIS/RFO-DIIS/Sim-DIIS IScMMF=       -3 using points:    14   13   12   11   10
 RFO step:  Lambda=-7.20481095D-10.
 NNeg= 0 NGDIIS= 5 SimSw=  2.50D-01 Rises=F DC= -9.70D-08 SmlDif=  1.00D-05
 NRisDI= 0 DoIntr=F SqrtH=F CThrHd= 10.0 CDAdj=  3.0
 RMS Error=  0.7061838686D-04 NUsed= 5 OKEnD=F EnDIS=F
 InvSVX:  RCond= 5.62D-10 Info=           0 Equed=N FErr=  4.98D-12 BErr=  4.56D-17
 DIIS inversion failure, remove point   5.
 InvSVX:  RCond= 2.05D-08 Info=           0 Equed=N FErr=  8.36D-14 BErr=  5.64D-17
 DIIS inversion failure, remove point   4.
 InvSVX:  RCond= 5.76D-08 Info=           0 Equed=N FErr=  9.53D-15 BErr=  5.25D-18
 DIIS inversion failure, remove point   3.
 InvSVX:  RCond= 2.61D-06 Info=           0 Equed=N FErr=  1.14D-15 BErr=  1.85D-17
 RFO-DIIS uses    2 points instead of    5
 DidBck=F Rises=F RFO-DIIS coefs:    1.12359   -0.12359    0.00000    0.00000    0.00000
 Iteration  1 RMS(Cart)=  0.00016392 RMS(Int)=  0.00000004
 Iteration  2 RMS(Cart)=  0.00000002 RMS(Int)=  0.00000004
 ITry= 1 IFail=0 DXMaxC= 5.35D-04 DCOld= 1.00D+10 DXMaxT= 1.70D+00 DXLimC= 3.00D+00 Rises=F
 ClnCor:  largest displacement from symmetrization is 3.98D-13 for atom     7.
 Variable       Old X    -DE/DX   Delta X   Delta X   Delta X     New X
                                 (Linear)    (Quad)   (Total)
    R1        3.13729  -0.00000  -0.00002  -0.00001  -0.00003   3.13726
    R2        6.02408   0.00000   0.00015   0.00006   0.00021   6.02429
    R3        2.81364  -0.00000  -0.00000   0.00000  -0.00000   2.81364
    R4        2.81364  -0.00000  -0.00000   0.00000  -0.00000   2.81364
    R5        2.81935   0.00000   0.00002  -0.00001   0.00001   2.81936
    R6        3.13729  -0.00000  -0.00002  -0.00001  -0.00003   3.13726
    R7        2.81364  -0.00000  -0.00000   0.00000  -0.00000   2.81364
    R8        2.81364  -0.00000  -0.00000   0.00000  -0.00000   2.81364
    R9        2.81935   0.00000   0.00002  -0.00001   0.00001   2.81936
    A1        1.90788   0.00000  -0.00002   0.00003   0.00001   1.90788
    A2        1.90788   0.00000  -0.00002   0.00003   0.00001   1.90788
    A3        1.92433  -0.00000  -0.00001   0.00001   0.00000   1.92433
    A4        2.03826   0.00000  -0.00006   0.00001  -0.00005   2.03821
    A5        2.03826   0.00000  -0.00006   0.00001  -0.00005   2.03821
    A6        1.64081   0.00000   0.00010   0.00005   0.00015   1.64096
    A7        1.90550  -0.00000  -0.00002  -0.00001  -0.00003   1.90547
    A8        1.90907  -0.00000   0.00004  -0.00004   0.00000   1.90907
    A9        1.90907  -0.00000   0.00004  -0.00004   0.00000   1.90907
   A10        2.03826   0.00000  -0.00006   0.00001  -0.00005   2.03821
   A11        2.03826   0.00000  -0.00006   0.00001  -0.00005   2.03821
   A12        1.64081   0.00000   0.00010   0.00005   0.00015   1.64096
   A13        1.90788   0.00000  -0.00002   0.00003   0.00001   1.90788
   A14        1.90788   0.00000  -0.00002   0.00003   0.00001   1.90788
   A15        1.92433  -0.00000  -0.00001   0.00001   0.00000   1.92433
   A16        1.90550  -0.00000  -0.00002  -0.00001  -0.00003   1.90547
   A17        1.90907  -0.00000   0.00004  -0.00004   0.00000   1.90907
   A18        1.90907  -0.00000   0.00004  -0.00004   0.00000   1.90907
    D1       -0.00000  -0.00000   0.00000  -0.00000   0.00000   0.00000
    D2        2.30096  -0.00000  -0.00017   0.00001  -0.00016   2.30080
    D3       -1.99111  -0.00000  -0.00009   0.00001  -0.00008  -1.99119
    D4       -2.30096   0.00000   0.00017  -0.00001   0.00016  -2.30080
    D5       -0.00000   0.00000   0.00000  -0.00000   0.00000   0.00000
    D6        1.99111   0.00000   0.00009  -0.00001   0.00008   1.99119
    D7        1.99111   0.00000   0.00009  -0.00001   0.00008   1.99119
    D8       -1.99111  -0.00000  -0.00009   0.00001  -0.00008  -1.99119
    D9       -0.00000  -0.00000   0.00000  -0.00000   0.00000   0.00000
         Item               Value     Threshold  Converged?
 Maximum Force            0.000004     0.000450     YES
 RMS     Force            0.000002     0.000300     YES
 Maximum Displacement     0.000535     0.001800     YES
 RMS     Displacement     0.000164     0.001200     YES
 Predicted change in Energy=-1.050399D-09
 Optimization completed.
    -- Stationary point found.
                           ----------------------------
                           !   Optimized Parameters   !
                           ! (Angstroms and Degrees)  !
 --------------------------                            --------------------------
 ! Name  Definition              Value          Derivative Info.                !
 --------------------------------------------------------------------------------
 ! R1    R(1,2)                  1.6602         -DE/DX =    0.0                 !
 ! R2    R(1,3)                  3.1878         -DE/DX =    0.0                 !
 ! R3    R(1,4)                  1.4889         -DE/DX =    0.0                 !
 ! R4    R(1,5)                  1.4889         -DE/DX =    0.0                 !
 ! R5    R(1,6)                  1.4919         -DE/DX =    0.0                 !
 ! R6    R(2,3)                  1.6602         -DE/DX =    0.0                 !
 ! R7    R(3,7)                  1.4889         -DE/DX =    0.0                 !
 ! R8    R(3,8)                  1.4889         -DE/DX =    0.0                 !
 ! R9    R(3,9)                  1.4919         -DE/DX =    0.0                 !
 ! A1    A(2,1,4)              109.3132         -DE/DX =    0.0                 !
 ! A2    A(2,1,5)              109.3132         -DE/DX =    0.0                 !
 ! A3    A(2,1,6)              110.2561         -DE/DX =    0.0                 !
 ! A4    A(3,1,4)              116.7837         -DE/DX =    0.0                 !
 ! A5    A(3,1,5)              116.7837         -DE/DX =    0.0                 !
 ! A6    A(3,1,6)               94.0114         -DE/DX =    0.0                 !
 ! A7    A(4,1,5)              109.1771         -DE/DX =    0.0                 !
 ! A8    A(4,1,6)              109.3815         -DE/DX =    0.0                 !
 ! A9    A(5,1,6)              109.3815         -DE/DX =    0.0                 !
 ! A10   A(1,3,7)              116.7837         -DE/DX =    0.0                 !
 ! A11   A(1,3,8)              116.7837         -DE/DX =    0.0                 !
 ! A12   A(1,3,9)               94.0114         -DE/DX =    0.0                 !
 ! A13   A(2,3,7)              109.3132         -DE/DX =    0.0                 !
 ! A14   A(2,3,8)              109.3132         -DE/DX =    0.0                 !
 ! A15   A(2,3,9)              110.2561         -DE/DX =    0.0                 !
 ! A16   A(7,3,8)              109.1771         -DE/DX =    0.0                 !
 ! A17   A(7,3,9)              109.3815         -DE/DX =    0.0                 !
 ! A18   A(8,3,9)              109.3815         -DE/DX =    0.0                 !
 ! D1    D(4,1,3,7)              0.0            -DE/DX =    0.0                 !
 ! D2    D(4,1,3,8)            131.8352         -DE/DX =    0.0                 !
 ! D3    D(4,1,3,9)           -114.0824         -DE/DX =    0.0                 !
 ! D4    D(5,1,3,7)           -131.8352         -DE/DX =    0.0                 !
 ! D5    D(5,1,3,8)              0.0            -DE/DX =    0.0                 !
 ! D6    D(5,1,3,9)            114.0824         -DE/DX =    0.0                 !
 ! D7    D(6,1,3,7)            114.0824         -DE/DX =    0.0                 !
 ! D8    D(6,1,3,8)           -114.0824         -DE/DX =    0.0                 !
 ! D9    D(6,1,3,9)              0.0            -DE/DX =    0.0                 !
 --------------------------------------------------------------------------------
 Lowest energy point so far.  Saving SCF results.
 Largest change from initial coordinates is atom    8       0.498 Angstoms.
 GradGradGradGradGradGradGradGradGradGradGradGradGradGradGradGradGradGrad

 Leave Link  103 at Wed Jun 24 00:58:02 2026, MaxMem=  1879048192 cpu:               0.0 elap:               0.0
 (Enter /CH/g16/l202.exe)
                          Input orientation:                          
 ---------------------------------------------------------------------
 Center     Atomic      Atomic             Coordinates (Angstroms)
 Number     Number       Type             X           Y           Z
 ---------------------------------------------------------------------
      1         14           0       -0.393902    0.000000   -0.413037
      2          8           0        1.200000   -0.000000    0.051382
      3         14           0        2.793902   -0.000000   -0.413037
      4          1           0       -1.064843    1.213483    0.129333
      5          1           0       -1.064843   -1.213483    0.129333
      6          1           0       -0.498271    0.000000   -1.901319
      7          1           0        3.464843    1.213483    0.129333
      8          1           0        3.464843   -1.213483    0.129333
      9          1           0        2.898271   -0.000000   -1.901319
 ---------------------------------------------------------------------
                    Distance matrix (angstroms):
                    1          2          3          4          5
     1  Si   0.000000
     2  O    1.660184   0.000000
     3  Si   3.187804   1.660184   0.000000
     4  H    1.488915   2.570629   4.081252   0.000000
     5  H    1.488915   2.570629   4.081252   2.426967   0.000000
     6  H    1.491937   2.587889   3.612947   2.432508   2.432508
     7  H    4.081252   2.570629   1.488915   4.529686   5.138893
     8  H    4.081252   2.570629   1.488915   5.138893   4.529686
     9  H    3.612947   2.587889   1.491937   4.615448   4.615448
                    6          7          8          9
     6  H    0.000000
     7  H    4.615448   0.000000
     8  H    4.615448   2.426967   0.000000
     9  H    3.396542   2.432508   2.432508   0.000000
 Stoichiometry    H6OSi2
 Framework group  C2V[C2(O),SGV(H2Si2),X(H4)]
 Deg. of freedom     7
 Full point group                 C2V     NOp   4
 RotChk:  IX=0 Diff= 8.51D-16
 Largest Abelian subgroup         C2V     NOp   4
 Largest concise Abelian subgroup C2V     NOp   4
                         Standard orientation:                         
 ---------------------------------------------------------------------
 Center     Atomic      Atomic             Coordinates (Angstroms)
 Number     Number       Type             X           Y           Z
 ---------------------------------------------------------------------
      1         14           0        0.000000    1.593902   -0.069245
      2          8           0       -0.000000   -0.000000    0.395175
      3         14           0       -0.000000   -1.593902   -0.069245
      4          1           0        1.213483    2.264843    0.473125
      5          1           0       -1.213483    2.264843    0.473125
      6          1           0        0.000000    1.698271   -1.557527
      7          1           0        1.213483   -2.264843    0.473125
      8          1           0       -1.213483   -2.264843    0.473125
      9          1           0       -0.000000   -1.698271   -1.557527
 ---------------------------------------------------------------------
 Rotational constants (GHZ):          34.9124659           2.8948215           2.8522923
 Leave Link  202 at Wed Jun 24 00:58:02 2026, MaxMem=  1879048192 cpu:               0.0 elap:               0.0
 (Enter /CH/g16/l601.exe)
 Copying SCF densities to generalized density rwf, IOpCl= 0 IROHF=0.

 **********************************************************************

            Population analysis using the SCF Density.

 **********************************************************************

 Orbital symmetries:
       Occupied  (B2) (A1) (A1) (B2) (A1) (B2) (A1) (A1) (B2) (A2)
                 (B1) (A1) (B2) (A1) (B2) (A1) (B1) (A2) (B2) (A1)
                 (B1)
       Virtual   (A1) (B2) (B2) (B1) (A1) (A2) (A1) (B2) (A1) (B2)
                 (A1) (B1) (A2) (B2) (A1) (B2) (A2) (A1) (B1) (B2)
                 (A1) (B1) (A1) (A2) (B2) (B2) (A1) (B1) (A1) (A2)
                 (B2) (B2) (B1) (A1) (A1) (B2) (B1) (A2) (A2) (B1)
                 (B2) (A1) (A1) (B2) (A1) (A2) (B1) (B2) (A1) (B2)
                 (A1) (B1) (A2) (B2) (B1) (A1) (A2) (B2) (A1)
 The electronic state is 1-A1.
 Alpha  occ. eigenvalues --  -66.14258 -66.14250 -19.13015  -5.30675  -5.30671
 Alpha  occ. eigenvalues --   -3.67041  -3.67041  -3.66776  -3.66776  -3.66766
 Alpha  occ. eigenvalues --   -3.66765  -0.97370  -0.58897  -0.50424  -0.42931
 Alpha  occ. eigenvalues --   -0.40515  -0.40306  -0.34903  -0.34508  -0.30884
 Alpha  occ. eigenvalues --   -0.30097
 Alpha virt. eigenvalues --    0.00800   0.06369   0.07242   0.07903   0.08093
 Alpha virt. eigenvalues --    0.08680   0.09506   0.11911   0.19794   0.28884
 Alpha virt. eigenvalues --    0.29153   0.29563   0.32779   0.33346   0.39931
 Alpha virt. eigenvalues --    0.41049   0.41077   0.46009   0.47748   0.53352
 Alpha virt. eigenvalues --    0.53516   0.53545   0.56571   0.56761   0.57914
 Alpha virt. eigenvalues --    0.63349   0.85154   0.87891   0.88754   0.90077
 Alpha virt. eigenvalues --    0.90538   0.98855   1.12336   1.12533   1.23951
 Alpha virt. eigenvalues --    1.37243   1.37359   1.37359   1.49410   1.54993
 Alpha virt. eigenvalues --    1.58076   1.59226   1.68124   1.70481   1.71306
 Alpha virt. eigenvalues --    1.71863   1.72815   1.77531   1.97738   1.99189
 Alpha virt. eigenvalues --    2.16006   2.16520   2.17722   2.17971   2.66105
 Alpha virt. eigenvalues --    2.66732   2.75764   2.98248   3.15933
          Condensed to atoms (all electrons):
               1          2          3          4          5          6
     1  Si  11.866704   0.381524  -0.022081   0.373790   0.373790   0.387229
     2  O    0.381524   7.912161   0.381524  -0.017373  -0.017373  -0.017417
     3  Si  -0.022081   0.381524  11.866704   0.000618   0.000618  -0.004421
     4  H    0.373790  -0.017373   0.000618   0.812817  -0.025466  -0.025701
     5  H    0.373790  -0.017373   0.000618  -0.025466   0.812817  -0.025701
     6  H    0.387229  -0.017417  -0.004421  -0.025701  -0.025701   0.801873
     7  H    0.000618  -0.017373   0.373790   0.000448  -0.000091  -0.000177
     8  H    0.000618  -0.017373   0.373790  -0.000091   0.000448  -0.000177
     9  H   -0.004421  -0.017417   0.387229  -0.000177  -0.000177   0.003549
               7          8          9
     1  Si   0.000618   0.000618  -0.004421
     2  O   -0.017373  -0.017373  -0.017417
     3  Si   0.373790   0.373790   0.387229
     4  H    0.000448  -0.000091  -0.000177
     5  H   -0.000091   0.000448  -0.000177
     6  H   -0.000177  -0.000177   0.003549
     7  H    0.812817  -0.025466  -0.025701
     8  H   -0.025466   0.812817  -0.025701
     9  H   -0.025701  -0.025701   0.801873
 Mulliken charges:
               1
     1  Si   0.642229
     2  O   -0.570884
     3  Si   0.642229
     4  H   -0.118865
     5  H   -0.118865
     6  H   -0.119056
     7  H   -0.118865
     8  H   -0.118865
     9  H   -0.119056
 Sum of Mulliken charges =  -0.00000
 Mulliken charges with hydrogens summed into heavy atoms:
               1
     1  Si   0.285442
     2  O   -0.570884
     3  Si   0.285442
 Electronic spatial extent (au):  <R**2>=            473.7364
 Charge=              0.0000 electrons
 Dipole moment (field-independent basis, Debye):
    X=             -0.0000    Y=              0.0000    Z=             -0.5456  Tot=              0.5456
 Quadrupole moment (field-independent basis, Debye-Ang):
   XX=            -36.1735   YY=            -33.9681   ZZ=            -36.5752
   XY=             -0.0000   XZ=              0.0000   YZ=             -0.0000
 Traceless Quadrupole moment (field-independent basis, Debye-Ang):
   XX=             -0.6013   YY=              1.6042   ZZ=             -1.0029
   XY=             -0.0000   XZ=              0.0000   YZ=             -0.0000
 Octapole moment (field-independent basis, Debye-Ang**2):
  XXX=              0.0000  YYY=             -0.0000  ZZZ=              6.0147  XYY=             -0.0000
  XXY=              0.0000  XXZ=             -0.8490  XZZ=              0.0000  YZZ=             -0.0000
  YYZ=             -1.0126  XYZ=              0.0000
 Hexadecapole moment (field-independent basis, Debye-Ang**3):
 XXXX=            -86.0421 YYYY=           -558.9546 ZZZZ=            -92.6205 XXXY=             -0.0000
 XXXZ=              0.0000 YYYX=             -0.0000 YYYZ=             -0.0000 ZZZX=             -0.0000
 ZZZY=              0.0000 XXYY=           -119.7546 XXZZ=            -29.2148 YYZZ=           -114.2809
 XXYZ=             -0.0000 YYXZ=             -0.0000 ZZXY=             -0.0000
 N-N= 1.573404768858D+02 E-N=-1.877192931194D+03  KE= 6.549502414890D+02
 Symmetry A1   KE= 3.311027875617D+02
 Symmetry A2   KE= 2.599181728423D+01
 Symmetry B1   KE= 3.018530040494D+01
 Symmetry B2   KE= 2.676703362381D+02
 No NMR shielding tensors so no spin-rotation constants.
 Leave Link  601 at Wed Jun 24 00:58:02 2026, MaxMem=  1879048192 cpu:               0.3 elap:               0.1
 (Enter /CH/g16/l9999.exe)
 Unable to Open any file for archive entry.
 1\1\GINC-NODE0-CHCLUSTER\FOpt\RB3LYP\def2SVP\H6O1Si2\LS\24-Jun-2026\0\
 \#p B3LYP/def2SVP EmpiricalDispersion=GD3BJ opt SCRF=(SMD,Solvent=Tetr
 ahydrofuran) int=ultrafine\\disiloxane\\0,1\Si,-0.3939021504,0.,-0.413
 0371377\O,1.2,0.,0.0513821941\Si,2.7939021504,0.,-0.4130371377\H,-1.06
 48428701,1.2134834839,0.1293327139\H,-1.0648428701,-1.2134834839,0.129
 3327139\H,-0.4982711374,0.,-1.9013193847\H,3.4648428701,1.2134834839,0
 .1293327139\H,3.4648428701,-1.2134834839,0.1293327139\H,2.8982711374,0
 .,-1.9013193847\\Version=ES64L-G16RevC.02\State=1-A1\HF=-657.6893369\R
 MSD=6.544e-09\RMSF=1.861e-06\Dipole=0.,0.,-0.2146426\Quadrupole=1.1926
 918,-0.4470322,-0.7456596,0.,0.,0.\PG=C02V [C2(O1),SGV(H2Si2),X(H4)]\\
 @
 The archive entry for this job was punched.


 IT IS IMPOSSIBLE TO MEDITATE ON TIME AND THE MYSTERY 
 OF NATURE WITHOUT AN OVERWHELMING EMOTION AT THE
 LIMITATIONS OF HUMAN INTELLIGENCE.

                                         -- ALFRED NORTH WHITEHEAD
 Job cpu time:       0 days  0 hours  2 minutes 21.9 seconds.
 Elapsed time:       0 days  0 hours  0 minutes 22.8 seconds.
 File lengths (MBytes):  RWF=     32 Int=      0 D2E=      0 Chk=      3 Scr=      1
 Normal termination of Gaussian 16 at Wed Jun 24 00:58:02 2026.
