 Entering Gaussian System, Link 0=/CH/g16/g16
 Initial command:
 /CH/g16/l1.exe "/tmp/g16tz_disiloxane_bsse_2947290/Gau-2949039.inp" -scrdir="/tmp/g16tz_disiloxane_bsse_2947290/"
 Default is to use a total of  96 processors:
                               96 via shared-memory
                                1 via Linda
 Entering Link 1 = /CH/g16/l1.exe PID=   2949040.
  
 Copyright (c) 1988-2021, Gaussian, Inc.  All Rights Reserved.
  
 This is part of the Gaussian(R) 16 program.  It is based on
 the Gaussian(R) 09 system (copyright 2009, Gaussian, Inc.),
 the Gaussian(R) 03 system (copyright 2003, Gaussian, Inc.),
 the Gaussian(R) 98 system (copyright 1998, Gaussian, Inc.),
 the Gaussian(R) 94 system (copyright 1995, Gaussian, Inc.),
 the Gaussian 92(TM) system (copyright 1992, Gaussian, Inc.),
 the Gaussian 90(TM) system (copyright 1990, Gaussian, Inc.),
 the Gaussian 88(TM) system (copyright 1988, Gaussian, Inc.),
 the Gaussian 86(TM) system (copyright 1986, Carnegie Mellon
 University), and the Gaussian 82(TM) system (copyright 1983,
 Carnegie Mellon University). Gaussian is a federally registered
 trademark of Gaussian, Inc.
  
 This software contains proprietary and confidential information,
 including trade secrets, belonging to Gaussian, Inc.
  
 This software is provided under written license and may be
 used, copied, transmitted, or stored only in accord with that
 written license.
  
 The following legend is applicable only to US Government
 contracts under FAR:
  
                    RESTRICTED RIGHTS LEGEND
  
 Use, reproduction and disclosure by the US Government is
 subject to restrictions as set forth in subparagraphs (a)
 and (c) of the Commercial Computer Software - Restricted
 Rights clause in FAR 52.227-19.
  
 Gaussian, Inc.
 340 Quinnipiac St., Bldg. 40, Wallingford CT 06492
  
  
 ---------------------------------------------------------------
 Warning -- This program may not be used in any manner that
 competes with the business of Gaussian, Inc. or will provide
 assistance to any competitor of Gaussian, Inc.  The licensee
 of this program is prohibited from giving any competitor of
 Gaussian, Inc. access to this program.  By using this program,
 the user acknowledges that Gaussian, Inc. is engaged in the
 business of creating and licensing software in the field of
 computational chemistry and represents and warrants to the
 licensee that it is not a competitor of Gaussian, Inc. and that
 it will not use this program in any manner prohibited above.
 ---------------------------------------------------------------
  

 Cite this work as:
 Gaussian 16, Revision C.02,
 M. J. Frisch, G. W. Trucks, H. B. Schlegel, G. E. Scuseria, 
 M. A. Robb, J. R. Cheeseman, G. Scalmani, V. Barone, 
 G. A. Petersson, H. Nakatsuji, X. Li, M. Caricato, A. V. Marenich, 
 J. Bloino, B. G. Janesko, R. Gomperts, B. Mennucci, H. P. Hratchian, 
 J. V. Ortiz, A. F. Izmaylov, J. L. Sonnenberg, D. Williams-Young, 
 F. Ding, F. Lipparini, F. Egidi, J. Goings, B. Peng, A. Petrone, 
 T. Henderson, D. Ranasinghe, V. G. Zakrzewski, J. Gao, N. Rega, 
 G. Zheng, W. Liang, M. Hada, M. Ehara, K. Toyota, R. Fukuda, 
 J. Hasegawa, M. Ishida, T. Nakajima, Y. Honda, O. Kitao, H. Nakai, 
 T. Vreven, K. Throssell, J. A. Montgomery, Jr., J. E. Peralta, 
 F. Ogliaro, M. J. Bearpark, J. J. Heyd, E. N. Brothers, K. N. Kudin, 
 V. N. Staroverov, T. A. Keith, R. Kobayashi, J. Normand, 
 K. Raghavachari, A. P. Rendell, J. C. Burant, S. S. Iyengar, 
 J. Tomasi, M. Cossi, J. M. Millam, M. Klene, C. Adamo, R. Cammi, 
 J. W. Ochterski, R. L. Martin, K. Morokuma, O. Farkas, 
 J. B. Foresman, and D. J. Fox, Gaussian, Inc., Wallingford CT, 2019.
 
 ******************************************
 Gaussian 16:  ES64L-G16RevC.02  7-Dec-2021
                24-Jun-2026 
 ******************************************
 %chk=disiloxane_bsse.chk
 %nprocshared=8
 Will use up to    8 processors via shared memory.
 %mem=14GB
 ----------------------------------------------------------------------
 #p B3LYP/def2TZVP EmpiricalDispersion=GD3BJ Counterpoise=2 int=ultrafi
 ne
 ----------------------------------------------------------------------
 1/38=1,62=2,172=1/1;
 2/12=2,17=6,18=5,40=1/2;
 1/38=1,53=2,62=2,63=1/22;
 3/5=44,7=101,11=2,25=1,30=1,74=-5,75=-5,124=41/1,2,3;
 4//1;
 5/5=2,38=5/2;
 6/7=2,8=2,9=2,10=2,28=1/1;
 1/53=2,62=2,63=1/22;
 3/5=7,6=11,7=101,11=2,25=1,30=1,74=-5,75=-5,82=7,124=41/1,2,3;
 4//1;
 5/5=2,38=5/2;
 6/7=2,8=2,9=2,10=2,28=1/1;
 1/53=2,62=2,63=1/22(-4);
 99/5=1,9=1/99;
 Leave Link    1 at Wed Jun 24 01:17:44 2026, MaxMem=  1879048192 cpu:               1.8 elap:               0.0
 (Enter /CH/g16/l101.exe)
 ---------------
 disiloxane_bsse
 ---------------
 Symbolic Z-matrix:
 Charge = -1 Multiplicity = 1 in supermolecule
 Charge =  0 Multiplicity = 1 in fragment      1.
 Charge = -1 Multiplicity = 1 in fragment      2.
 Si(Fragment=1)       -3.21061  -1.40139   0.02137 
 O(Fragment=1)        -3.26079   0.24826  -0.17825 
 Si(Fragment=1)       -2.3341    1.61461   0.04655 
 H(Fragment=1)        -4.53971  -1.82426   0.55436 
 H(Fragment=1)        -2.15475  -1.7945    0.99363 
 H(Fragment=1)        -2.99989  -2.0898   -1.28091 
 H(Fragment=1)        -3.25026   2.69577   0.51775 
 H(Fragment=1)        -1.30289   1.37142   1.08672 
 H(Fragment=1)        -1.71788   2.05577  -1.2307 
 Al(Fragment=2)        1.48257  -0.05977   0.00976 
 Cl(Fragment=2)       -0.04966  -0.73877  -1.37691 
 Cl(Fragment=2)        0.94873  -0.65859   2.0178 
 Cl(Fragment=2)        1.64075   2.09285  -0.11585 
 Cl(Fragment=2)        3.3663   -0.96658  -0.54226 
 
 ITRead=  0  0  0  0  0  0  0  0  0  0  0  0  0  0
 MicOpt= -1 -1 -1 -1 -1 -1 -1 -1 -1 -1 -1 -1 -1 -1
 NAtoms=     14 NQM=       14 NQMF=       0 NMMI=      0 NMMIF=      0
                NMic=       0 NMicF=      0.
                    Isotopes and Nuclear Properties:
 (Nuclear quadrupole moments (NQMom) in fm**2, nuclear magnetic moments (NMagM)
  in nuclear magnetons)

  Atom         1           2           3           4           5           6           7           8           9          10
 IAtWgt=          28          16          28           1           1           1           1           1           1          27
 AtmWgt=  27.9769284  15.9949146  27.9769284   1.0078250   1.0078250   1.0078250   1.0078250   1.0078250   1.0078250  26.9815413
 NucSpn=           0           0           0           1           1           1           1           1           1           5
 AtZEff=  -0.0000000  -0.0000000  -0.0000000  -0.0000000  -0.0000000  -0.0000000  -0.0000000  -0.0000000  -0.0000000  -0.0000000
 NQMom=    0.0000000   0.0000000   0.0000000   0.0000000   0.0000000   0.0000000   0.0000000   0.0000000   0.0000000  14.6600000
 NMagM=    0.0000000   0.0000000   0.0000000   2.7928460   2.7928460   2.7928460   2.7928460   2.7928460   2.7928460   3.6415040
 AtZNuc=  14.0000000   8.0000000  14.0000000   1.0000000   1.0000000   1.0000000   1.0000000   1.0000000   1.0000000  13.0000000

  Atom        11          12          13          14
 IAtWgt=          35          35          35          35
 AtmWgt=  34.9688527  34.9688527  34.9688527  34.9688527
 NucSpn=           3           3           3           3
 AtZEff=  -0.0000000  -0.0000000  -0.0000000  -0.0000000
 NQMom=   -8.1650000  -8.1650000  -8.1650000  -8.1650000
 NMagM=    0.8218740   0.8218740   0.8218740   0.8218740
 AtZNuc=  17.0000000  17.0000000  17.0000000  17.0000000
 Leave Link  101 at Wed Jun 24 01:17:45 2026, MaxMem=  1879048192 cpu:               0.1 elap:               0.1
 (Enter /CH/g16/l202.exe)
                          Input orientation:                          
 ---------------------------------------------------------------------
 Center     Atomic      Atomic             Coordinates (Angstroms)
 Number     Number       Type             X           Y           Z
 ---------------------------------------------------------------------
      1         14           0       -3.210610   -1.401390    0.021370
      2          8           0       -3.260790    0.248260   -0.178250
      3         14           0       -2.334100    1.614610    0.046550
      4          1           0       -4.539710   -1.824260    0.554360
      5          1           0       -2.154750   -1.794500    0.993630
      6          1           0       -2.999890   -2.089800   -1.280910
      7          1           0       -3.250260    2.695770    0.517750
      8          1           0       -1.302890    1.371420    1.086720
      9          1           0       -1.717880    2.055770   -1.230700
     10         13           0        1.482570   -0.059770    0.009760
     11         17           0       -0.049660   -0.738770   -1.376910
     12         17           0        0.948730   -0.658590    2.017800
     13         17           0        1.640750    2.092850   -0.115850
     14         17           0        3.366300   -0.966580   -0.542260
 ---------------------------------------------------------------------
                    Distance matrix (angstroms):
                    1          2          3          4          5
     1  Si   0.000000
     2  O    1.662441   0.000000
     3  Si   3.140885   1.666194   0.000000
     4  H    1.493119   2.543166   4.116845   0.000000
     5  H    1.488175   2.601825   3.542761   2.425258   0.000000
     6  H    1.488034   2.598163   3.991000   2.410347   2.444380
     7  H    4.127310   2.544569   1.493414   4.700499   4.646410
     8  H    3.530275   2.587472   1.484752   4.579605   3.279845
     9  H    3.968360   2.599099   1.485166   5.118964   4.468006
    10  Al   4.881190   4.757068   4.167958   6.299037   4.148179
    11  Cl   3.519355   3.566843   3.575374   5.006859   3.341471
    12  Cl   4.673071   4.833743   4.453115   5.798570   3.459885
    13  Cl   5.980321   5.237509   4.006809   7.347858   5.545111
    14  Cl   6.615322   6.747345   6.285205   8.027651   5.790199
                    6          7          8          9         10
     6  H    0.000000
     7  H    5.118549   0.000000
     8  H    4.523884   2.422783   0.000000
     9  H    4.339565   2.411403   2.451731   0.000000
    10  Al   5.087170   5.500067   3.311636   4.032013   0.000000
    11  Cl   3.246283   5.062573   3.477493   3.257881   2.175230
    12  Cl   5.340548   5.579731   3.171379   5.003130   2.162359
    13  Cl   6.355113   4.968595   3.260621   3.539020   2.162076
    14  Cl   6.506581   7.636445   5.470023   5.954615   2.162283
                   11         12         13         14
    11  Cl   0.000000
    12  Cl   3.539388   0.000000
    13  Cl   3.530698   3.549898   0.000000
    14  Cl   3.523822   3.534602   3.538285   0.000000
 Stoichiometry    AlCl4H6OSi2(1-)
 Framework group  C1[X(AlCl4H6OSi2)]
 Deg. of freedom    36
 Full point group                 C1      NOp   1
 Largest Abelian subgroup         C1      NOp   1
 Largest concise Abelian subgroup C1      NOp   1
                         Standard orientation:                         
 ---------------------------------------------------------------------
 Center     Atomic      Atomic             Coordinates (Angstroms)
 Number     Number       Type             X           Y           Z
 ---------------------------------------------------------------------
      1         14           0       -3.210610   -1.401386    0.021371
      2          8           0       -3.260788    0.248264   -0.178249
      3         14           0       -2.334096    1.614613    0.046551
      4          1           0       -4.539711   -1.824254    0.554361
      5          1           0       -2.154751   -1.794497    0.993631
      6          1           0       -2.999891   -2.089796   -1.280909
      7          1           0       -3.250255    2.695774    0.517751
      8          1           0       -1.302887    1.371422    1.086721
      9          1           0       -1.717876    2.055772   -1.230699
     10         13           0        1.482571   -0.059772    0.009761
     11         17           0       -0.049659   -0.738770   -1.376909
     12         17           0        0.948731   -0.658591    2.017801
     13         17           0        1.640754    2.092848   -0.115849
     14         17           0        3.366300   -0.966585   -0.542259
 ---------------------------------------------------------------------
 Rotational constants (GHZ):           0.8430722           0.3447839           0.3132508
 Leave Link  202 at Wed Jun 24 01:17:45 2026, MaxMem=  1879048192 cpu:               0.0 elap:               0.0
 (Enter /CH/g16/l122.exe)
 Counterpoise: doing full-system calculation.
 Leave Link  122 at Wed Jun 24 01:17:45 2026, MaxMem=  1879048192 cpu:               0.0 elap:               0.0
 (Enter /CH/g16/l301.exe)
 Standard basis: def2TZVP (5D, 7F)
 Ernie: Thresh=  0.10000D-02 Tol=  0.10000D-05 Strict=F.
 There are   366 symmetry adapted cartesian basis functions of A   symmetry.
 There are   326 symmetry adapted basis functions of A   symmetry.
   326 basis functions,   582 primitive gaussians,   366 cartesian basis functions
    62 alpha electrons       62 beta electrons
       nuclear repulsion energy      1020.4136065482 Hartrees.
 IExCor=  402 DFT=T Ex+Corr=B3LYP ExCW=0 ScaHFX=  0.200000
 ScaDFX=  0.800000  0.720000  1.000000  0.810000 ScalE2=  1.000000  1.000000
 IRadAn=      5 IRanWt=     -1 IRanGd=            0 ICorTp=0 IEmpDi=141
 NAtoms=   14 NActive=   14 NUniq=   14 SFac= 1.00D+00 NAtFMM=   60 NAOKFM=F Big=F
 Integral buffers will be    131072 words long.
 Raffenetti 2 integral format.
 Two-electron integral symmetry is turned on.
 R6Disp:  Grimme-D3(BJ) Dispersion energy=       -0.0359273824 Hartrees.
 Nuclear repulsion after empirical dispersion term =     1020.3776791658 Hartrees.
 Leave Link  301 at Wed Jun 24 01:17:45 2026, MaxMem=  1879048192 cpu:               0.0 elap:               0.0
 (Enter /CH/g16/l302.exe)
 NPDir=0 NMtPBC=     1 NCelOv=     1 NCel=       1 NClECP=     1 NCelD=      1
         NCelK=      1 NCelE2=     1 NClLst=     1 CellRange=     0.0.
 One-electron integrals computed using PRISM.
 One-electron integral symmetry used in STVInt
   1 Symmetry operations used in ECPInt.
 ECPInt:  NShTT=    8001 NPrTT=   30427 LenC2=    7124 LenP2D=   18631.
 LDataN:  DoStor=T MaxTD1= 6 Len=  172
 NBasis=   326 RedAO= T EigKep=  1.93D-03  NBF=   326
 NBsUse=   326 1.00D-06 EigRej= -1.00D+00 NBFU=   326
 Precomputing XC quadrature grid using
 IXCGrd= 4 IRadAn=           5 IRanWt=          -1 IRanGd=           0 AccXCQ= 0.00D+00.
 Generated NRdTot=       0 NPtTot=           0 NUsed=           0 NTot=          32
 NSgBfM=   357   357   357   357   357 MxSgAt=    14 MxSgA2=    14.
 Leave Link  302 at Wed Jun 24 01:17:45 2026, MaxMem=  1879048192 cpu:               0.7 elap:               0.2
 (Enter /CH/g16/l303.exe)
 DipDrv:  MaxL=1.
 Leave Link  303 at Wed Jun 24 01:17:45 2026, MaxMem=  1879048192 cpu:               0.1 elap:               0.0
 (Enter /CH/g16/l401.exe)
 ExpMin= 5.79D-02 ExpMax= 6.95D+04 ExpMxC= 2.37D+03 IAcc=3 IRadAn=         5 AccDes= 0.00D+00
 Harris functional with IExCor=  402 and IRadAn=       5 diagonalized for initial guess.
 HarFok:  IExCor=  402 AccDes= 0.00D+00 IRadAn=         5 IDoV= 1 UseB2=F ITyADJ=14
 ICtDFT=  3500011 ScaDFX=  1.000000  1.000000  1.000000  1.000000
 FoFCou: FMM=F IPFlag=           0 FMFlag=      100000 FMFlg1=           0
         NFxFlg=           0 DoJE=T BraDBF=F KetDBF=T FulRan=T
         wScrn=  0.000000 ICntrl=       500 IOpCl=  0 I1Cent=   200000004 NGrid=           0
         NMat0=    1 NMatS0=      1 NMatT0=    0 NMatD0=    1 NMtDS0=    0 NMtDT0=    0
 Petite list used in FoFCou.
 Harris En= -2741.47356901485    
 JPrj=0 DoOrth=F DoCkMO=F.
 Leave Link  401 at Wed Jun 24 01:17:46 2026, MaxMem=  1879048192 cpu:               3.4 elap:               0.5
 (Enter /CH/g16/l502.exe)
 Integral symmetry usage will be decided dynamically.
 Closed shell SCF:
 Using DIIS extrapolation, IDIIS=  1040.
 NGot=  1879048192 LenX=  1878773782 LenY=  1878639385
 Requested convergence on RMS density matrix=1.00D-08 within 128 cycles.
 Requested convergence on MAX density matrix=1.00D-06.
 Requested convergence on             energy=1.00D-06.
 No special actions if energy rises.
 Fock matrices will be formed incrementally for  20 cycles.
 Integral accuracy reduced to 1.0D-05 until final iterations.

 Cycle   1  Pass 0  IDiag  1:
 FoFJK:  IHMeth= 1 ICntrl=       0 DoSepK=F KAlg= 0 I1Cent=           0 FoldK=F
 IRaf= 840000000 NMat=       1 IRICut=       1 DoRegI=T DoRafI=F ISym2E= 0 IDoP0=0 IntGTp=1.
 FoFCou: FMM=F IPFlag=           0 FMFlag=      100000 FMFlg1=           0
         NFxFlg=           0 DoJE=F BraDBF=F KetDBF=F FulRan=T
         wScrn=  0.000000 ICntrl=         0 IOpCl=  0 I1Cent=           0 NGrid=           0
         NMat0=    1 NMatS0=      1 NMatT0=    0 NMatD0=    1 NMtDS0=    0 NMtDT0=    0
 Symmetry not used in FoFCou.
 E= -2741.67165729588    
 DIIS: error= 2.65D-02 at cycle   1 NSaved=   1.
 NSaved= 1 IEnMin= 1 EnMin= -2741.67165729588     IErMin= 1 ErrMin= 2.65D-02
 ErrMax= 2.65D-02  0.00D+00 EMaxC= 1.00D-01 BMatC= 2.58D-01 BMatP= 2.58D-01
 IDIUse=3 WtCom= 7.35D-01 WtEn= 2.65D-01
 Coeff-Com:  0.100D+01
 Coeff-En:   0.100D+01
 Coeff:      0.100D+01
 Gap=     0.260 Goal=   None    Shift=    0.000
 GapD=    0.260 DampG=1.000 DampE=0.500 DampFc=0.5000 IDamp=-1.
 Damping current iteration by 5.00D-01
 RMSDP=1.84D-03 MaxDP=1.07D-01              OVMax= 2.25D-01

 Cycle   2  Pass 0  IDiag  1:
 RMSU=  9.12D-04    CP:  9.94D-01
 E= -2741.69834643947     Delta-E=       -0.026689143588 Rises=F Damp=T
 DIIS: error= 1.21D-02 at cycle   2 NSaved=   2.
 NSaved= 2 IEnMin= 2 EnMin= -2741.69834643947     IErMin= 2 ErrMin= 1.21D-02
 ErrMax= 1.21D-02  0.00D+00 EMaxC= 1.00D-01 BMatC= 4.88D-02 BMatP= 2.58D-01
 IDIUse=3 WtCom= 8.79D-01 WtEn= 1.21D-01
 Coeff-Com:  0.139D+00 0.861D+00
 Coeff-En:   0.383D+00 0.617D+00
 Coeff:      0.168D+00 0.832D+00
 Gap=     0.336 Goal=   None    Shift=    0.000
 RMSDP=6.57D-04 MaxDP=2.90D-02 DE=-2.67D-02 OVMax= 1.58D-01

 Cycle   3  Pass 0  IDiag  1:
 RMSU=  5.63D-04    CP:  9.94D-01  6.29D-01
 E= -2741.77872329118     Delta-E=       -0.080376851709 Rises=F Damp=F
 DIIS: error= 1.24D-02 at cycle   3 NSaved=   3.
 NSaved= 3 IEnMin= 3 EnMin= -2741.77872329118     IErMin= 2 ErrMin= 1.21D-02
 ErrMax= 1.24D-02  0.00D+00 EMaxC= 1.00D-01 BMatC= 2.57D-02 BMatP= 4.88D-02
 IDIUse=3 WtCom= 8.76D-01 WtEn= 1.24D-01
 Coeff-Com: -0.114D+00 0.427D+00 0.687D+00
 Coeff-En:   0.000D+00 0.000D+00 0.100D+01
 Coeff:     -0.998D-01 0.374D+00 0.726D+00
 Gap=     0.261 Goal=   None    Shift=    0.000
 RMSDP=3.53D-04 MaxDP=2.06D-02 DE=-8.04D-02 OVMax= 4.03D-02

 Cycle   4  Pass 0  IDiag  1:
 RMSU=  1.75D-04    CP:  9.94D-01  8.25D-01  5.59D-01
 E= -2741.79615141074     Delta-E=       -0.017428119558 Rises=F Damp=F
 DIIS: error= 3.09D-03 at cycle   4 NSaved=   4.
 NSaved= 4 IEnMin= 4 EnMin= -2741.79615141074     IErMin= 4 ErrMin= 3.09D-03
 ErrMax= 3.09D-03  0.00D+00 EMaxC= 1.00D-01 BMatC= 2.31D-03 BMatP= 2.57D-02
 IDIUse=3 WtCom= 9.69D-01 WtEn= 3.09D-02
 Coeff-Com: -0.306D-01 0.110D+00 0.322D+00 0.598D+00
 Coeff-En:   0.000D+00 0.000D+00 0.489D-01 0.951D+00
 Coeff:     -0.297D-01 0.107D+00 0.314D+00 0.609D+00
 Gap=     0.251 Goal=   None    Shift=    0.000
 RMSDP=1.10D-04 MaxDP=5.55D-03 DE=-1.74D-02 OVMax= 9.01D-03

 Cycle   5  Pass 0  IDiag  1:
 RMSU=  3.99D-05    CP:  9.93D-01  7.91D-01  6.85D-01  6.20D-01
 E= -2741.79779687165     Delta-E=       -0.001645460909 Rises=F Damp=F
 DIIS: error= 2.99D-04 at cycle   5 NSaved=   5.
 NSaved= 5 IEnMin= 5 EnMin= -2741.79779687165     IErMin= 5 ErrMin= 2.99D-04
 ErrMax= 2.99D-04  0.00D+00 EMaxC= 1.00D-01 BMatC= 3.89D-05 BMatP= 2.31D-03
 IDIUse=3 WtCom= 9.97D-01 WtEn= 2.99D-03
 Coeff-Com: -0.693D-02 0.124D-01 0.562D-01 0.183D+00 0.756D+00
 Coeff-En:   0.000D+00 0.000D+00 0.000D+00 0.000D+00 0.100D+01
 Coeff:     -0.691D-02 0.123D-01 0.560D-01 0.182D+00 0.756D+00
 Gap=     0.252 Goal=   None    Shift=    0.000
 RMSDP=1.55D-05 MaxDP=1.06D-03 DE=-1.65D-03 OVMax= 8.20D-04

 Cycle   6  Pass 0  IDiag  1:
 RMSU=  6.52D-06    CP:  9.93D-01  7.92D-01  6.77D-01  6.79D-01  8.02D-01
 E= -2741.79782036130     Delta-E=       -0.000023489657 Rises=F Damp=F
 DIIS: error= 4.29D-05 at cycle   6 NSaved=   6.
 NSaved= 6 IEnMin= 6 EnMin= -2741.79782036130     IErMin= 6 ErrMin= 4.29D-05
 ErrMax= 4.29D-05  0.00D+00 EMaxC= 1.00D-01 BMatC= 9.77D-07 BMatP= 3.89D-05
 IDIUse=1 WtCom= 1.00D+00 WtEn= 0.00D+00
 Coeff-Com: -0.148D-02 0.160D-02 0.879D-02 0.389D-01 0.250D+00 0.703D+00
 Coeff:     -0.148D-02 0.160D-02 0.879D-02 0.389D-01 0.250D+00 0.703D+00
 Gap=     0.252 Goal=   None    Shift=    0.000
 RMSDP=3.21D-06 MaxDP=2.28D-04 DE=-2.35D-05 OVMax= 2.08D-04

 Initial convergence to 1.0D-05 achieved.  Increase integral accuracy.
 Cycle   7  Pass 1  IDiag  1:
 E= -2741.79781072339     Delta-E=        0.000009637907 Rises=F Damp=F
 DIIS: error= 4.48D-05 at cycle   1 NSaved=   1.
 NSaved= 1 IEnMin= 1 EnMin= -2741.79781072339     IErMin= 1 ErrMin= 4.48D-05
 ErrMax= 4.48D-05  0.00D+00 EMaxC= 1.00D-01 BMatC= 1.56D-06 BMatP= 1.56D-06
 IDIUse=1 WtCom= 1.00D+00 WtEn= 0.00D+00
 Coeff-Com:  0.100D+01
 Coeff:      0.100D+01
 Gap=     0.252 Goal=   None    Shift=    0.000
 RMSDP=3.21D-06 MaxDP=2.28D-04 DE= 9.64D-06 OVMax= 2.33D-04

 Cycle   8  Pass 1  IDiag  1:
 RMSU=  1.39D-05    CP:  1.00D+00
 E= -2741.79781180380     Delta-E=       -0.000001080401 Rises=F Damp=F
 DIIS: error= 2.51D-05 at cycle   2 NSaved=   2.
 NSaved= 2 IEnMin= 2 EnMin= -2741.79781180380     IErMin= 2 ErrMin= 2.51D-05
 ErrMax= 2.51D-05  0.00D+00 EMaxC= 1.00D-01 BMatC= 1.71D-07 BMatP= 1.56D-06
 IDIUse=1 WtCom= 1.00D+00 WtEn= 0.00D+00
 Coeff-Com:  0.144D+00 0.856D+00
 Coeff:      0.144D+00 0.856D+00
 Gap=     0.252 Goal=   None    Shift=    0.000
 RMSDP=2.08D-06 MaxDP=2.63D-04 DE=-1.08D-06 OVMax= 1.84D-04

 Cycle   9  Pass 1  IDiag  1:
 RMSU=  2.08D-06    CP:  1.00D+00  9.95D-01
 E= -2741.79781177802     Delta-E=        0.000000025771 Rises=F Damp=F
 DIIS: error= 2.56D-05 at cycle   3 NSaved=   3.
 NSaved= 3 IEnMin= 2 EnMin= -2741.79781180380     IErMin= 2 ErrMin= 2.51D-05
 ErrMax= 2.56D-05  0.00D+00 EMaxC= 1.00D-01 BMatC= 1.93D-07 BMatP= 1.71D-07
 IDIUse=1 WtCom= 1.00D+00 WtEn= 0.00D+00
 Coeff-Com: -0.482D-02 0.516D+00 0.489D+00
 Coeff:     -0.482D-02 0.516D+00 0.489D+00
 Gap=     0.252 Goal=   None    Shift=    0.000
 RMSDP=1.08D-06 MaxDP=1.43D-04 DE= 2.58D-08 OVMax= 9.52D-05

 Cycle  10  Pass 1  IDiag  1:
 RMSU=  1.42D-07    CP:  1.00D+00  1.01D+00  4.91D-01
 E= -2741.79781198634     Delta-E=       -0.000000208312 Rises=F Damp=F
 DIIS: error= 1.21D-06 at cycle   4 NSaved=   4.
 NSaved= 4 IEnMin= 4 EnMin= -2741.79781198634     IErMin= 4 ErrMin= 1.21D-06
 ErrMax= 1.21D-06  0.00D+00 EMaxC= 1.00D-01 BMatC= 6.73D-10 BMatP= 1.71D-07
 IDIUse=1 WtCom= 1.00D+00 WtEn= 0.00D+00
 Coeff-Com: -0.305D-02 0.263D+00 0.253D+00 0.487D+00
 Coeff:     -0.305D-02 0.263D+00 0.253D+00 0.487D+00
 Gap=     0.252 Goal=   None    Shift=    0.000
 RMSDP=6.59D-08 MaxDP=4.11D-06 DE=-2.08D-07 OVMax= 5.53D-06

 Cycle  11  Pass 1  IDiag  1:
 RMSU=  3.42D-08    CP:  1.00D+00  1.01D+00  4.94D-01  6.07D-01
 E= -2741.79781198700     Delta-E=       -0.000000000665 Rises=F Damp=F
 DIIS: error= 7.78D-08 at cycle   5 NSaved=   5.
 NSaved= 5 IEnMin= 5 EnMin= -2741.79781198700     IErMin= 5 ErrMin= 7.78D-08
 ErrMax= 7.78D-08  0.00D+00 EMaxC= 1.00D-01 BMatC= 4.99D-12 BMatP= 6.73D-10
 IDIUse=1 WtCom= 1.00D+00 WtEn= 0.00D+00
 Coeff-Com: -0.566D-03 0.438D-01 0.433D-01 0.110D+00 0.804D+00
 Coeff:     -0.566D-03 0.438D-01 0.433D-01 0.110D+00 0.804D+00
 Gap=     0.252 Goal=   None    Shift=    0.000
 RMSDP=8.68D-09 MaxDP=8.08D-07 DE=-6.65D-10 OVMax= 5.07D-07

 SCF Done:  E(RB3LYP) =  -2741.79781199     A.U. after   11 cycles
            NFock= 11  Conv=0.87D-08     -V/T= 2.0018
 KE= 2.736781977598D+03 PE=-8.583217699712D+03 EE= 2.084260230961D+03
 Leave Link  502 at Wed Jun 24 01:17:59 2026, MaxMem=  1879048192 cpu:             102.8 elap:              13.3
 (Enter /CH/g16/l601.exe)
 Copying SCF densities to generalized density rwf, IOpCl= 0 IROHF=0.

 **********************************************************************

            Population analysis using the SCF Density.

 **********************************************************************

 Orbital symmetries:
       Occupied  (A) (A) (A) (A) (A) (A) (A) (A) (A) (A) (A) (A)
                 (A) (A) (A) (A) (A) (A) (A) (A) (A) (A) (A) (A)
                 (A) (A) (A) (A) (A) (A) (A) (A) (A) (A) (A) (A)
                 (A) (A) (A) (A) (A) (A) (A) (A) (A) (A) (A) (A)
                 (A) (A) (A) (A) (A) (A) (A) (A) (A) (A) (A) (A)
                 (A) (A)
       Virtual   (A) (A) (A) (A) (A) (A) (A) (A) (A) (A) (A) (A)
                 (A) (A) (A) (A) (A) (A) (A) (A) (A) (A) (A) (A)
                 (A) (A) (A) (A) (A) (A) (A) (A) (A) (A) (A) (A)
                 (A) (A) (A) (A) (A) (A) (A) (A) (A) (A) (A) (A)
                 (A) (A) (A) (A) (A) (A) (A) (A) (A) (A) (A) (A)
                 (A) (A) (A) (A) (A) (A) (A) (A) (A) (A) (A) (A)
                 (A) (A) (A) (A) (A) (A) (A) (A) (A) (A) (A) (A)
                 (A) (A) (A) (A) (A) (A) (A) (A) (A) (A) (A) (A)
                 (A) (A) (A) (A) (A) (A) (A) (A) (A) (A) (A) (A)
                 (A) (A) (A) (A) (A) (A) (A) (A) (A) (A) (A) (A)
                 (A) (A) (A) (A) (A) (A) (A) (A) (A) (A) (A) (A)
                 (A) (A) (A) (A) (A) (A) (A) (A) (A) (A) (A) (A)
                 (A) (A) (A) (A) (A) (A) (A) (A) (A) (A) (A) (A)
                 (A) (A) (A) (A) (A) (A) (A) (A) (A) (A) (A) (A)
                 (A) (A) (A) (A) (A) (A) (A) (A) (A) (A) (A) (A)
                 (A) (A) (A) (A) (A) (A) (A) (A) (A) (A) (A) (A)
                 (A) (A) (A) (A) (A) (A) (A) (A) (A) (A) (A) (A)
                 (A) (A) (A) (A) (A) (A) (A) (A) (A) (A) (A) (A)
                 (A) (A) (A) (A) (A) (A) (A) (A) (A) (A) (A) (A)
                 (A) (A) (A) (A) (A) (A) (A) (A) (A) (A) (A) (A)
                 (A) (A) (A) (A) (A) (A) (A) (A) (A) (A) (A) (A)
                 (A) (A) (A) (A) (A) (A) (A) (A) (A) (A) (A) (A)
 The electronic state is 1-A.
 Alpha  occ. eigenvalues -- -101.35442-101.34935-101.34896-101.34723 -66.02649
 Alpha  occ. eigenvalues --  -66.01922 -55.92893 -19.02056  -9.28876  -9.28358
 Alpha  occ. eigenvalues --   -9.28315  -9.28142  -7.04637  -7.04357  -7.04333
 Alpha  occ. eigenvalues --   -7.04130  -7.04088  -7.03915  -7.03824  -7.03820
 Alpha  occ. eigenvalues --   -7.03781  -7.03778  -7.03606  -7.03605  -5.18482
 Alpha  occ. eigenvalues --   -5.17783  -4.02981  -3.54401  -3.54249  -3.54196
 Alpha  occ. eigenvalues --   -3.53723  -3.53544  -3.53470  -2.58304  -2.58285
 Alpha  occ. eigenvalues --   -2.58282  -0.88090  -0.66824  -0.65029  -0.64675
 Alpha  occ. eigenvalues --   -0.64515  -0.47753  -0.39923  -0.32135  -0.30141
 Alpha  occ. eigenvalues --   -0.30068  -0.29461  -0.24541  -0.23853  -0.23001
 Alpha  occ. eigenvalues --   -0.22839  -0.22721  -0.20729  -0.20011  -0.18705
 Alpha  occ. eigenvalues --   -0.18464  -0.17878  -0.17828  -0.17480  -0.16008
 Alpha  occ. eigenvalues --   -0.15969  -0.15768
 Alpha virt. eigenvalues --    0.09457   0.14255   0.14886   0.15570   0.15864
 Alpha virt. eigenvalues --    0.16797   0.17258   0.18037   0.18743   0.20872
 Alpha virt. eigenvalues --    0.21066   0.21579   0.24232   0.25895   0.26072
 Alpha virt. eigenvalues --    0.26858   0.28210   0.28644   0.30013   0.30904
 Alpha virt. eigenvalues --    0.31521   0.32225   0.33260   0.33547   0.34186
 Alpha virt. eigenvalues --    0.34523   0.35276   0.36104   0.36701   0.37274
 Alpha virt. eigenvalues --    0.38191   0.40602   0.41927   0.43522   0.44575
 Alpha virt. eigenvalues --    0.44828   0.46764   0.46842   0.47049   0.48831
 Alpha virt. eigenvalues --    0.49328   0.49761   0.50173   0.50372   0.50897
 Alpha virt. eigenvalues --    0.52379   0.53435   0.54537   0.56064   0.57140
 Alpha virt. eigenvalues --    0.57430   0.57829   0.58528   0.59533   0.60478
 Alpha virt. eigenvalues --    0.62658   0.64506   0.65371   0.66639   0.67571
 Alpha virt. eigenvalues --    0.68323   0.68929   0.70325   0.71030   0.72602
 Alpha virt. eigenvalues --    0.73012   0.73859   0.74318   0.74625   0.75756
 Alpha virt. eigenvalues --    0.79021   0.79294   0.79540   0.80065   0.80589
 Alpha virt. eigenvalues --    0.82770   0.84542   0.89018   0.89289   0.91940
 Alpha virt. eigenvalues --    0.92534   0.95594   0.97311   0.98259   0.99774
 Alpha virt. eigenvalues --    1.00531   1.00874   1.01380   1.03702   1.04190
 Alpha virt. eigenvalues --    1.06778   1.08458   1.09956   1.11078   1.11580
 Alpha virt. eigenvalues --    1.12661   1.13038   1.14736   1.16770   1.17013
 Alpha virt. eigenvalues --    1.18169   1.19579   1.20490   1.22330   1.22887
 Alpha virt. eigenvalues --    1.23043   1.23369   1.23762   1.24050   1.24783
 Alpha virt. eigenvalues --    1.25015   1.25523   1.26130   1.28353   1.31664
 Alpha virt. eigenvalues --    1.33430   1.35192   1.40454   1.44890   1.45727
 Alpha virt. eigenvalues --    1.47061   1.47952   1.51006   1.54073   1.63031
 Alpha virt. eigenvalues --    1.66753   1.80338   1.82990   1.87703   1.89975
 Alpha virt. eigenvalues --    1.90270   1.90612   1.91340   1.92171   1.93402
 Alpha virt. eigenvalues --    1.94012   1.94468   1.96409   1.97502   1.97833
 Alpha virt. eigenvalues --    1.98405   1.99162   2.00190   2.01776   2.03006
 Alpha virt. eigenvalues --    2.04017   2.04086   2.05127   2.06406   2.06841
 Alpha virt. eigenvalues --    2.07891   2.08723   2.09684   2.09998   2.12622
 Alpha virt. eigenvalues --    2.13722   2.14208   2.15100   2.15463   2.15953
 Alpha virt. eigenvalues --    2.16382   2.18190   2.20344   2.21808   2.22081
 Alpha virt. eigenvalues --    2.22115   2.22432   2.23908   2.23961   2.24117
 Alpha virt. eigenvalues --    2.24175   2.24301   2.24533   2.24702   2.25717
 Alpha virt. eigenvalues --    2.26755   2.26973   2.27669   2.34703   2.35979
 Alpha virt. eigenvalues --    2.36513   2.36846   2.37508   2.37607   2.37968
 Alpha virt. eigenvalues --    2.38618   2.39506   2.39763   2.41230   2.41761
 Alpha virt. eigenvalues --    2.43308   2.43595   2.44682   2.48847   2.49425
 Alpha virt. eigenvalues --    2.52015   2.52725   2.54096   2.55336   2.55692
 Alpha virt. eigenvalues --    2.56125   2.57252   2.60230   2.61132   2.61907
 Alpha virt. eigenvalues --    2.62361   2.63426   2.65745   2.66784   2.67765
 Alpha virt. eigenvalues --    2.79538   2.85732   2.92235   2.93805   2.96328
 Alpha virt. eigenvalues --    2.98451   2.99362   3.00600   3.01340   3.03012
 Alpha virt. eigenvalues --    3.08448   3.52325   3.57682   5.23866   5.24540
 Alpha virt. eigenvalues --    5.30035   5.30117   5.39232   5.40065   5.46212
 Alpha virt. eigenvalues --    6.25364   6.26424   6.29069   6.30649   6.51409
 Alpha virt. eigenvalues --    6.52111   6.57740   6.69452   6.77224   6.93153
 Alpha virt. eigenvalues --    7.13406   7.93462   9.49769   9.50218   9.56896
 Alpha virt. eigenvalues --   10.85034  10.86829  10.89010  10.89281  10.89887
 Alpha virt. eigenvalues --   10.91912  10.92249  10.97146  11.10930  11.11568
 Alpha virt. eigenvalues --   11.11828  11.13197  11.15480  11.19741  24.96641
 Alpha virt. eigenvalues --   24.97933  25.00362  25.24598  43.72984
          Condensed to atoms (all electrons):
               1          2          3          4          5          6
     1  Si  12.070274   0.415676  -0.058137   0.373532   0.411948   0.396370
     2  O    0.415676   7.709848   0.409094  -0.016980  -0.021627  -0.016112
     3  Si  -0.058137   0.409094  12.087500   0.001509  -0.003002  -0.000201
     4  H    0.373532  -0.016980   0.001509   0.813536  -0.027596  -0.033081
     5  H    0.411948  -0.021627  -0.003002  -0.027596   0.687230  -0.021724
     6  H    0.396370  -0.016112  -0.000201  -0.033081  -0.021724   0.749205
     7  H    0.002177  -0.017627   0.367669   0.000271  -0.000144  -0.000145
     8  H   -0.003397  -0.021980   0.412627  -0.000124   0.003121  -0.000215
     9  H   -0.000425  -0.016217   0.402115  -0.000143  -0.000161   0.000641
    10  Al  -0.001689  -0.001150  -0.000230  -0.000008  -0.000453   0.000406
    11  Cl   0.018026  -0.006490   0.011743   0.000499  -0.004330  -0.002489
    12  Cl  -0.003106   0.000089  -0.004938   0.000018   0.004859   0.000083
    13  Cl   0.000058   0.000066   0.001074   0.000000  -0.000011   0.000002
    14  Cl  -0.000019  -0.000000  -0.000050  -0.000000  -0.000010   0.000000
               7          8          9         10         11         12
     1  Si   0.002177  -0.003397  -0.000425  -0.001689   0.018026  -0.003106
     2  O   -0.017627  -0.021980  -0.016217  -0.001150  -0.006490   0.000089
     3  Si   0.367669   0.412627   0.402115  -0.000230   0.011743  -0.004938
     4  H    0.000271  -0.000124  -0.000143  -0.000008   0.000499   0.000018
     5  H   -0.000144   0.003121  -0.000161  -0.000453  -0.004330   0.004859
     6  H   -0.000145  -0.000215   0.000641   0.000406  -0.002489   0.000083
     7  H    0.823297  -0.025185  -0.033180  -0.000197   0.000412   0.000056
     8  H   -0.025185   0.678061  -0.020392   0.001479  -0.003949   0.004914
     9  H   -0.033180  -0.020392   0.719509   0.001403  -0.002141   0.000129
    10  Al  -0.000197   0.001479   0.001403  10.808603   0.377783   0.395860
    11  Cl   0.000412  -0.003949  -0.002141   0.377783  17.053752  -0.022505
    12  Cl   0.000056   0.004914   0.000129   0.395860  -0.022505  17.059962
    13  Cl   0.000075  -0.002378   0.000216   0.398594  -0.022669  -0.022494
    14  Cl   0.000000  -0.000017  -0.000009   0.409393  -0.024168  -0.024351
              13         14
     1  Si   0.000058  -0.000019
     2  O    0.000066  -0.000000
     3  Si   0.001074  -0.000050
     4  H    0.000000  -0.000000
     5  H   -0.000011  -0.000010
     6  H    0.000002   0.000000
     7  H    0.000075   0.000000
     8  H   -0.002378  -0.000017
     9  H    0.000216  -0.000009
    10  Al   0.398594   0.409393
    11  Cl  -0.022669  -0.024168
    12  Cl  -0.022494  -0.024351
    13  Cl  17.062332  -0.023935
    14  Cl  -0.023935  17.052081
 Mulliken charges:
               1
     1  Si   0.378711
     2  O   -0.416589
     3  Si   0.373227
     4  H   -0.111432
     5  H   -0.028098
     6  H   -0.072739
     7  H   -0.117478
     8  H   -0.022566
     9  H   -0.051346
    10  Al   0.610206
    11  Cl  -0.373475
    12  Cl  -0.388576
    13  Cl  -0.390930
    14  Cl  -0.388915
 Sum of Mulliken charges =  -1.00000
 Mulliken charges with hydrogens summed into heavy atoms:
               1
     1  Si   0.166442
     2  O   -0.416589
     3  Si   0.181838
    10  Al   0.610206
    11  Cl  -0.373475
    12  Cl  -0.388576
    13  Cl  -0.390930
    14  Cl  -0.388915
         Mulliken charges condensed to fragments:
      1     -0.068309
      2     -0.931691
 Electronic spatial extent (au):  <R**2>=           3644.3771
 Charge=             -1.0000 electrons
 Dipole moment (field-independent basis, Debye):
    X=             -4.4246    Y=              0.0672    Z=              0.0440  Tot=              4.4254
 Quadrupole moment (field-independent basis, Debye-Ang):
   XX=           -133.4108   YY=           -112.5126   ZZ=           -111.4964
   XY=              1.5437   XZ=              0.0989   YZ=              0.0315
 Traceless Quadrupole moment (field-independent basis, Debye-Ang):
   XX=            -14.2709   YY=              6.6273   ZZ=              7.6435
   XY=              1.5437   XZ=              0.0989   YZ=              0.0315
 Octapole moment (field-independent basis, Debye-Ang**2):
  XXX=             10.3518  YYY=            -14.2072  ZZZ=             -8.5278  XYY=             -2.0093
  XXY=              7.0495  XXZ=              4.2955  XZZ=             -1.3255  YZZ=              6.5621
  YYZ=              0.5000  XYZ=              0.6957
 Hexadecapole moment (field-independent basis, Debye-Ang**3):
 XXXX=          -3755.0885 YYYY=          -1167.4514 ZZZZ=           -701.3632 XXXY=             20.0551
 XXXZ=             49.9358 YYYX=             -7.5046 YYYZ=             -3.7729 ZZZX=             -9.1777
 ZZZY=              2.1870 XXYY=           -817.6110 XXZZ=           -676.5128 YYZZ=           -313.8886
 XXYZ=             -5.1226 YYXZ=              7.3927 ZZXY=              0.3175
 N-N= 1.020377679166D+03 E-N=-8.583217744424D+03  KE= 2.736781977598D+03
 No NMR shielding tensors so no spin-rotation constants.
 Leave Link  601 at Wed Jun 24 01:17:59 2026, MaxMem=  1879048192 cpu:               0.4 elap:               0.1
 (Enter /CH/g16/l122.exe)
 CPIOFr:  IOpCl= 0 IRwI=-1 IRwCP=  731 ICalc= -1 LCPTot=      163064 Len1MO=      432554 IndFrg=      163064
 CPIOFr:  IOpCl= 0 IRwI=-1 IRwCP=  731 ICalc=  0 LCPTot=      163064 Len1MO=      432554 IndFrg=      595618
 Counterpoise: doing calculation for fragment   1 using the basis set of the full-system, NewBq=T
 Leave Link  122 at Wed Jun 24 01:17:59 2026, MaxMem=  1879048192 cpu:               0.0 elap:               0.0
 (Enter /CH/g16/l301.exe)
 Basis read from rwf:  (5D, 7F)
 Pseudo-potential data read from rwf file.
 There are   366 symmetry adapted cartesian basis functions of A   symmetry.
 There are   326 symmetry adapted basis functions of A   symmetry.
   326 basis functions,   582 primitive gaussians,   366 cartesian basis functions
    21 alpha electrons       21 beta electrons
       nuclear repulsion energy       157.8340953767 Hartrees.
 IExCor=  402 DFT=T Ex+Corr=B3LYP ExCW=0 ScaHFX=  0.200000
 ScaDFX=  0.800000  0.720000  1.000000  0.810000 ScalE2=  1.000000  1.000000
 IRadAn=      5 IRanWt=     -1 IRanGd=            0 ICorTp=0 IEmpDi=141
 NAtoms=   14 NActive=   14 NUniq=   14 SFac= 1.00D+00 NAtFMM=   60 NAOKFM=F Big=F
 Integral buffers will be    131072 words long.
 Raffenetti 2 integral format.
 Two-electron integral symmetry is turned on.
 R6Disp:  Grimme-D3(BJ) Dispersion energy=       -0.0105257925 Hartrees.
 Nuclear repulsion after empirical dispersion term =      157.8235695842 Hartrees.
 No density basis found on file    718.
 Leave Link  301 at Wed Jun 24 01:17:59 2026, MaxMem=  1879048192 cpu:               0.0 elap:               0.0
 (Enter /CH/g16/l302.exe)
 NPDir=0 NMtPBC=     1 NCelOv=     1 NCel=       1 NClECP=     1 NCelD=      1
         NCelK=      1 NCelE2=     1 NClLst=     1 CellRange=     0.0.
 One-electron integrals computed using PRISM.
 One-electron integral symmetry used in STVInt
   1 Symmetry operations used in ECPInt.
 ECPInt:  NShTT=    8001 NPrTT=   30427 LenC2=    7124 LenP2D=   18631.
 LDataN:  DoStor=T MaxTD1= 6 Len=  172
 NBasis=   326 RedAO= T EigKep=  1.93D-03  NBF=   326
 NBsUse=   326 1.00D-06 EigRej= -1.00D+00 NBFU=   326
 Precomputing XC quadrature grid using
 IXCGrd= 4 IRadAn=           5 IRanWt=          -1 IRanGd=           0 AccXCQ= 0.00D+00.
 Generated NRdTot=       0 NPtTot=           0 NUsed=           0 NTot=          32
 NSgBfM=   357   357   357   357   357 MxSgAt=    14 MxSgA2=    14.
 Leave Link  302 at Wed Jun 24 01:17:59 2026, MaxMem=  1879048192 cpu:               0.7 elap:               0.2
 (Enter /CH/g16/l303.exe)
 DipDrv:  MaxL=1.
 Leave Link  303 at Wed Jun 24 01:17:59 2026, MaxMem=  1879048192 cpu:               0.1 elap:               0.0
 (Enter /CH/g16/l401.exe)
 ExpMin= 5.79D-02 ExpMax= 6.95D+04 ExpMxC= 2.37D+03 IAcc=3 IRadAn=         5 AccDes= 0.00D+00
 Harris functional with IExCor=  402 and IRadAn=       5 diagonalized for initial guess.
 HarFok:  IExCor=  402 AccDes= 0.00D+00 IRadAn=         5 IDoV= 1 UseB2=F ITyADJ=14
 ICtDFT=  3500011 ScaDFX=  1.000000  1.000000  1.000000  1.000000
 FoFCou: FMM=F IPFlag=           0 FMFlag=      100000 FMFlg1=           0
         NFxFlg=           0 DoJE=T BraDBF=F KetDBF=T FulRan=T
         wScrn=  0.000000 ICntrl=       500 IOpCl=  0 I1Cent=   200000004 NGrid=           0
         NMat0=    1 NMatS0=      1 NMatT0=    0 NMatD0=    1 NMtDS0=    0 NMtDT0=    0
 Petite list used in FoFCou.
 Harris En= -657.939860264519    
 JPrj=0 DoOrth=F DoCkMO=F.
 Leave Link  401 at Wed Jun 24 01:18:00 2026, MaxMem=  1879048192 cpu:               3.2 elap:               0.4
 (Enter /CH/g16/l502.exe)
 Integral symmetry usage will be decided dynamically.
 Closed shell SCF:
 Using DIIS extrapolation, IDIIS=  1040.
 NGot=  1879048192 LenX=  1878773782 LenY=  1878639385
 Requested convergence on RMS density matrix=1.00D-08 within 128 cycles.
 Requested convergence on MAX density matrix=1.00D-06.
 Requested convergence on             energy=1.00D-06.
 No special actions if energy rises.
 Fock matrices will be formed incrementally for  20 cycles.
 Integral accuracy reduced to 1.0D-05 until final iterations.

 Cycle   1  Pass 0  IDiag  1:
 FoFJK:  IHMeth= 1 ICntrl=       0 DoSepK=F KAlg= 0 I1Cent=           0 FoldK=F
 IRaf= 840000000 NMat=       1 IRICut=       1 DoRegI=T DoRafI=F ISym2E= 0 IDoP0=0 IntGTp=1.
 FoFCou: FMM=F IPFlag=           0 FMFlag=      100000 FMFlg1=           0
         NFxFlg=           0 DoJE=F BraDBF=F KetDBF=F FulRan=T
         wScrn=  0.000000 ICntrl=         0 IOpCl=  0 I1Cent=           0 NGrid=           0
         NMat0=    1 NMatS0=      1 NMatT0=    0 NMatD0=    1 NMtDS0=    0 NMtDT0=    0
 Symmetry not used in FoFCou.
 E= -657.900706549845    
 DIIS: error= 2.68D-02 at cycle   1 NSaved=   1.
 NSaved= 1 IEnMin= 1 EnMin= -657.900706549845     IErMin= 1 ErrMin= 2.68D-02
 ErrMax= 2.68D-02  0.00D+00 EMaxC= 1.00D-01 BMatC= 1.57D-01 BMatP= 1.57D-01
 IDIUse=3 WtCom= 7.32D-01 WtEn= 2.68D-01
 Coeff-Com:  0.100D+01
 Coeff-En:   0.100D+01
 Coeff:      0.100D+01
 Gap=     0.259 Goal=   None    Shift=    0.000
 GapD=    0.259 DampG=1.000 DampE=0.500 DampFc=0.5000 IDamp=-1.
 Damping current iteration by 5.00D-01
 RMSDP=1.56D-03 MaxDP=1.07D-01              OVMax= 2.27D-01

 Cycle   2  Pass 0  IDiag  1:
 RMSU=  7.77D-04    CP:  9.93D-01
 E= -657.911463809021     Delta-E=       -0.010757259176 Rises=F Damp=T
 DIIS: error= 1.18D-02 at cycle   2 NSaved=   2.
 NSaved= 2 IEnMin= 2 EnMin= -657.911463809021     IErMin= 2 ErrMin= 1.18D-02
 ErrMax= 1.18D-02  0.00D+00 EMaxC= 1.00D-01 BMatC= 3.04D-02 BMatP= 1.57D-01
 IDIUse=3 WtCom= 8.82D-01 WtEn= 1.18D-01
 Coeff-Com:  0.253D+00 0.747D+00
 Coeff-En:   0.452D+00 0.548D+00
 Coeff:      0.277D+00 0.723D+00
 Gap=     0.319 Goal=   None    Shift=    0.000
 RMSDP=5.10D-04 MaxDP=1.91D-02 DE=-1.08D-02 OVMax= 1.44D-01

 Cycle   3  Pass 0  IDiag  1:
 RMSU=  3.94D-04    CP:  9.95D-01  5.83D-01
 E= -657.995760065227     Delta-E=       -0.084296256207 Rises=F Damp=F
 DIIS: error= 5.28D-03 at cycle   3 NSaved=   3.
 NSaved= 3 IEnMin= 3 EnMin= -657.995760065227     IErMin= 3 ErrMin= 5.28D-03
 ErrMax= 5.28D-03  0.00D+00 EMaxC= 1.00D-01 BMatC= 5.31D-03 BMatP= 3.04D-02
 IDIUse=3 WtCom= 9.47D-01 WtEn= 5.28D-02
 Coeff-Com: -0.137D-01 0.277D+00 0.737D+00
 Coeff-En:   0.000D+00 0.000D+00 0.100D+01
 Coeff:     -0.130D-01 0.262D+00 0.751D+00
 Gap=     0.292 Goal=   None    Shift=    0.000
 RMSDP=1.70D-04 MaxDP=7.68D-03 DE=-8.43D-02 OVMax= 2.24D-02

 Cycle   4  Pass 0  IDiag  1:
 RMSU=  9.08D-05    CP:  9.92D-01  7.06D-01  7.34D-01
 E= -658.000229618420     Delta-E=       -0.004469553193 Rises=F Damp=F
 DIIS: error= 6.11D-04 at cycle   4 NSaved=   4.
 NSaved= 4 IEnMin= 4 EnMin= -658.000229618420     IErMin= 4 ErrMin= 6.11D-04
 ErrMax= 6.11D-04  0.00D+00 EMaxC= 1.00D-01 BMatC= 1.78D-04 BMatP= 5.31D-03
 IDIUse=3 WtCom= 9.94D-01 WtEn= 6.11D-03
 Coeff-Com: -0.103D-01 0.390D-01 0.229D+00 0.743D+00
 Coeff-En:   0.000D+00 0.000D+00 0.000D+00 0.100D+01
 Coeff:     -0.102D-01 0.388D-01 0.227D+00 0.744D+00
 Gap=     0.291 Goal=   None    Shift=    0.000
 RMSDP=3.66D-05 MaxDP=3.54D-03 DE=-4.47D-03 OVMax= 3.16D-03

 Cycle   5  Pass 0  IDiag  1:
 RMSU=  2.11D-05    CP:  9.93D-01  6.87D-01  7.64D-01  7.56D-01
 E= -658.000359485657     Delta-E=       -0.000129867236 Rises=F Damp=F
 DIIS: error= 7.36D-05 at cycle   5 NSaved=   5.
 NSaved= 5 IEnMin= 5 EnMin= -658.000359485657     IErMin= 5 ErrMin= 7.36D-05
 ErrMax= 7.36D-05  0.00D+00 EMaxC= 1.00D-01 BMatC= 2.64D-06 BMatP= 1.78D-04
 IDIUse=1 WtCom= 1.00D+00 WtEn= 0.00D+00
 Coeff-Com: -0.137D-02 0.207D-03 0.292D-01 0.176D+00 0.796D+00
 Coeff:     -0.137D-02 0.207D-03 0.292D-01 0.176D+00 0.796D+00
 Gap=     0.291 Goal=   None    Shift=    0.000
 RMSDP=6.25D-06 MaxDP=7.52D-04 DE=-1.30D-04 OVMax= 5.20D-04

 Initial convergence to 1.0D-05 achieved.  Increase integral accuracy.
 Cycle   6  Pass 1  IDiag  1:
 E= -658.000374632315     Delta-E=       -0.000015146658 Rises=F Damp=F
 DIIS: error= 3.39D-05 at cycle   1 NSaved=   1.
 NSaved= 1 IEnMin= 1 EnMin= -658.000374632315     IErMin= 1 ErrMin= 3.39D-05
 ErrMax= 3.39D-05  0.00D+00 EMaxC= 1.00D-01 BMatC= 4.41D-07 BMatP= 4.41D-07
 IDIUse=1 WtCom= 1.00D+00 WtEn= 0.00D+00
 Coeff-Com:  0.100D+01
 Coeff:      0.100D+01
 Gap=     0.291 Goal=   None    Shift=    0.000
 RMSDP=6.25D-06 MaxDP=7.52D-04 DE=-1.51D-05 OVMax= 1.43D-04

 Cycle   7  Pass 1  IDiag  1:
 RMSU=  3.27D-06    CP:  1.00D+00
 E= -658.000374900607     Delta-E=       -0.000000268292 Rises=F Damp=F
 DIIS: error= 1.18D-05 at cycle   2 NSaved=   2.
 NSaved= 2 IEnMin= 2 EnMin= -658.000374900607     IErMin= 2 ErrMin= 1.18D-05
 ErrMax= 1.18D-05  0.00D+00 EMaxC= 1.00D-01 BMatC= 3.32D-08 BMatP= 4.41D-07
 IDIUse=1 WtCom= 1.00D+00 WtEn= 0.00D+00
 Coeff-Com:  0.139D+00 0.861D+00
 Coeff:      0.139D+00 0.861D+00
 Gap=     0.291 Goal=   None    Shift=    0.000
 RMSDP=7.51D-07 MaxDP=8.10D-05 DE=-2.68D-07 OVMax= 8.12D-05

 Cycle   8  Pass 1  IDiag  1:
 RMSU=  7.06D-07    CP:  1.00D+00  9.33D-01
 E= -658.000374928900     Delta-E=       -0.000000028293 Rises=F Damp=F
 DIIS: error= 5.25D-06 at cycle   3 NSaved=   3.
 NSaved= 3 IEnMin= 3 EnMin= -658.000374928900     IErMin= 3 ErrMin= 5.25D-06
 ErrMax= 5.25D-06  0.00D+00 EMaxC= 1.00D-01 BMatC= 7.68D-09 BMatP= 3.32D-08
 IDIUse=1 WtCom= 1.00D+00 WtEn= 0.00D+00
 Coeff-Com:  0.370D-03 0.322D+00 0.677D+00
 Coeff:      0.370D-03 0.322D+00 0.677D+00
 Gap=     0.291 Goal=   None    Shift=    0.000
 RMSDP=2.38D-07 MaxDP=2.65D-05 DE=-2.83D-08 OVMax= 2.54D-05

 Cycle   9  Pass 1  IDiag  1:
 RMSU=  4.83D-08    CP:  1.00D+00  9.60D-01  7.00D-01
 E= -658.000374936154     Delta-E=       -0.000000007253 Rises=F Damp=F
 DIIS: error= 7.76D-07 at cycle   4 NSaved=   4.
 NSaved= 4 IEnMin= 4 EnMin= -658.000374936154     IErMin= 4 ErrMin= 7.76D-07
 ErrMax= 7.76D-07  0.00D+00 EMaxC= 1.00D-01 BMatC= 1.37D-10 BMatP= 7.68D-09
 IDIUse=1 WtCom= 1.00D+00 WtEn= 0.00D+00
 Coeff-Com: -0.122D-02 0.132D+00 0.286D+00 0.583D+00
 Coeff:     -0.122D-02 0.132D+00 0.286D+00 0.583D+00
 Gap=     0.291 Goal=   None    Shift=    0.000
 RMSDP=2.17D-08 MaxDP=1.84D-06 DE=-7.25D-09 OVMax= 2.77D-06

 Cycle  10  Pass 1  IDiag  1:
 RMSU=  1.70D-08    CP:  1.00D+00  9.61D-01  6.98D-01  7.25D-01
 E= -658.000374936210     Delta-E=       -0.000000000057 Rises=F Damp=F
 DIIS: error= 4.52D-07 at cycle   5 NSaved=   5.
 NSaved= 5 IEnMin= 5 EnMin= -658.000374936210     IErMin= 5 ErrMin= 4.52D-07
 ErrMax= 4.52D-07  0.00D+00 EMaxC= 1.00D-01 BMatC= 3.23D-11 BMatP= 1.37D-10
 IDIUse=1 WtCom= 1.00D+00 WtEn= 0.00D+00
 Coeff-Com: -0.802D-03 0.584D-01 0.127D+00 0.375D+00 0.440D+00
 Coeff:     -0.802D-03 0.584D-01 0.127D+00 0.375D+00 0.440D+00
 Gap=     0.291 Goal=   None    Shift=    0.000
 RMSDP=9.41D-09 MaxDP=6.22D-07 DE=-5.67D-11 OVMax= 1.27D-06

 SCF Done:  E(RB3LYP) =  -658.000374936     A.U. after   10 cycles
            NFock= 10  Conv=0.94D-08     -V/T= 2.0029
 KE= 6.560931775128D+02 PE=-1.880137693216D+03 EE= 4.082205711829D+02
 Leave Link  502 at Wed Jun 24 01:18:11 2026, MaxMem=  1879048192 cpu:              89.2 elap:              11.6
 (Enter /CH/g16/l601.exe)
 Copying SCF densities to generalized density rwf, IOpCl= 0 IROHF=0.

 **********************************************************************

            Population analysis using the SCF Density.

 **********************************************************************

 Orbital symmetries:
       Occupied  (A) (A) (A) (A) (A) (A) (A) (A) (A) (A) (A) (A)
                 (A) (A) (A) (A) (A) (A) (A) (A) (A)
       Virtual   (A) (A) (A) (A) (A) (A) (A) (A) (A) (A) (A) (A)
                 (A) (A) (A) (A) (A) (A) (A) (A) (A) (A) (A) (A)
                 (A) (A) (A) (A) (A) (A) (A) (A) (A) (A) (A) (A)
                 (A) (A) (A) (A) (A) (A) (A) (A) (A) (A) (A) (A)
                 (A) (A) (A) (A) (A) (A) (A) (A) (A) (A) (A) (A)
                 (A) (A) (A) (A) (A) (A) (A) (A) (A) (A) (A) (A)
                 (A) (A) (A) (A) (A) (A) (A) (A) (A) (A) (A) (A)
                 (A) (A) (A) (A) (A) (A) (A) (A) (A) (A) (A) (A)
                 (A) (A) (A) (A) (A) (A) (A) (A) (A) (A) (A) (A)
                 (A) (A) (A) (A) (A) (A) (A) (A) (A) (A) (A) (A)
                 (A) (A) (A) (A) (A) (A) (A) (A) (A) (A) (A) (A)
                 (A) (A) (A) (A) (A) (A) (A) (A) (A) (A) (A) (A)
                 (A) (A) (A) (A) (A) (A) (A) (A) (A) (A) (A) (A)
                 (A) (A) (A) (A) (A) (A) (A) (A) (A) (A) (A) (A)
                 (A) (A) (A) (A) (A) (A) (A) (A) (A) (A) (A) (A)
                 (A) (A) (A) (A) (A) (A) (A) (A) (A) (A) (A) (A)
                 (A) (A) (A) (A) (A) (A) (A) (A) (A) (A) (A) (A)
                 (A) (A) (A) (A) (A) (A) (A) (A) (A) (A) (A) (A)
                 (A) (A) (A) (A) (A) (A) (A) (A) (A) (A) (A) (A)
                 (A) (A) (A) (A) (A) (A) (A) (A) (A) (A) (A) (A)
                 (A) (A) (A) (A) (A) (A) (A) (A) (A) (A) (A) (A)
                 (A) (A) (A) (A) (A) (A) (A) (A) (A) (A) (A) (A)
                 (A) (A) (A) (A) (A) (A) (A) (A) (A) (A) (A) (A)
                 (A) (A) (A) (A) (A) (A) (A) (A) (A) (A) (A) (A)
                 (A) (A) (A) (A) (A) (A) (A) (A) (A) (A) (A) (A)
                 (A) (A) (A) (A) (A)
 The electronic state is 1-A.
 Alpha  occ. eigenvalues --  -66.13696 -66.13627 -19.13469  -5.29566  -5.29492
 Alpha  occ. eigenvalues --   -3.65500  -3.65421  -3.65302  -3.65288  -3.65229
 Alpha  occ. eigenvalues --   -3.65218  -0.99465  -0.59050  -0.51318  -0.43477
 Alpha  occ. eigenvalues --   -0.41287  -0.40910  -0.35547  -0.34914  -0.32193
 Alpha  occ. eigenvalues --   -0.31083
 Alpha virt. eigenvalues --   -0.02018   0.01510   0.03387   0.03927   0.05026
 Alpha virt. eigenvalues --    0.05211   0.06173   0.06651   0.07528   0.09193
 Alpha virt. eigenvalues --    0.10745   0.12442   0.15050   0.16359   0.16559
 Alpha virt. eigenvalues --    0.17439   0.19754   0.20528   0.20890   0.22194
 Alpha virt. eigenvalues --    0.22567   0.22775   0.23524   0.24563   0.24906
 Alpha virt. eigenvalues --    0.26481   0.27942   0.30572   0.31012   0.32128
 Alpha virt. eigenvalues --    0.32791   0.33947   0.34319   0.35490   0.35835
 Alpha virt. eigenvalues --    0.36890   0.37736   0.38678   0.40353   0.41617
 Alpha virt. eigenvalues --    0.42451   0.44053   0.45705   0.46513   0.46749
 Alpha virt. eigenvalues --    0.47358   0.48658   0.49460   0.50265   0.52986
 Alpha virt. eigenvalues --    0.53373   0.55069   0.56069   0.58112   0.60750
 Alpha virt. eigenvalues --    0.61521   0.62688   0.64164   0.65652   0.69896
 Alpha virt. eigenvalues --    0.73671   0.74361   0.75567   0.77848   0.80077
 Alpha virt. eigenvalues --    0.88939   0.89517   0.90870   0.91141   0.92341
 Alpha virt. eigenvalues --    0.95338   0.97808   0.98208   0.98484   0.99225
 Alpha virt. eigenvalues --    1.01124   1.01394   1.03577   1.03692   1.04121
 Alpha virt. eigenvalues --    1.04860   1.05171   1.06094   1.06289   1.06978
 Alpha virt. eigenvalues --    1.09044   1.09870   1.11707   1.12260   1.12596
 Alpha virt. eigenvalues --    1.13360   1.14765   1.15238   1.16888   1.18041
 Alpha virt. eigenvalues --    1.19156   1.20368   1.21210   1.21709   1.23121
 Alpha virt. eigenvalues --    1.24033   1.27152   1.27843   1.29036   1.29868
 Alpha virt. eigenvalues --    1.30850   1.31294   1.31824   1.32769   1.33937
 Alpha virt. eigenvalues --    1.34487   1.35383   1.35860   1.36116   1.37524
 Alpha virt. eigenvalues --    1.37793   1.39850   1.40263   1.43640   1.44598
 Alpha virt. eigenvalues --    1.44913   1.45650   1.48976   1.49346   1.50606
 Alpha virt. eigenvalues --    1.52260   1.53256   1.56550   1.61972   1.63354
 Alpha virt. eigenvalues --    1.68995   1.70383   1.71131   1.72219   1.73232
 Alpha virt. eigenvalues --    1.74032   1.76293   1.77635   1.77944   1.80329
 Alpha virt. eigenvalues --    1.84358   1.85054   1.86657   1.87401   1.88503
 Alpha virt. eigenvalues --    1.89597   1.93526   1.98457   1.98700   2.00079
 Alpha virt. eigenvalues --    2.01539   2.03383   2.05631   2.09562   2.11105
 Alpha virt. eigenvalues --    2.21921   2.22217   2.25419   2.26175   2.27371
 Alpha virt. eigenvalues --    2.31412   2.33335   2.36538   2.39193   2.43567
 Alpha virt. eigenvalues --    2.47859   2.66870   2.71659   2.80210   2.80659
 Alpha virt. eigenvalues --    2.81015   2.82309   2.83812   2.85046   2.85269
 Alpha virt. eigenvalues --    2.87375   2.87881   2.90114   3.14520   3.15136
 Alpha virt. eigenvalues --    3.15169   3.15267   3.15488   3.15892   3.16128
 Alpha virt. eigenvalues --    3.16420   3.16957   3.17263   3.17644   3.18525
 Alpha virt. eigenvalues --    3.18777   3.26633   3.27814   3.28183   3.32752
 Alpha virt. eigenvalues --    3.33462   3.33918   3.37971   3.38281   3.40671
 Alpha virt. eigenvalues --    3.44515   3.45642   3.46275   3.47108   3.48433
 Alpha virt. eigenvalues --    3.49366   3.49672   3.50715   3.72272   3.74447
 Alpha virt. eigenvalues --    3.77486   3.78109   3.78373   3.78662   3.80458
 Alpha virt. eigenvalues --    3.84357   4.09841   4.25313   4.27077   4.29288
 Alpha virt. eigenvalues --    5.12513   5.13180   5.18617   5.18772   5.21832
 Alpha virt. eigenvalues --    5.22538   5.23259   5.24912   5.26168   5.27866
 Alpha virt. eigenvalues --    5.28747   5.30505   5.31931   5.33716   5.35438
 Alpha virt. eigenvalues --    5.42268   5.43399   5.44516   5.50208   5.50695
 Alpha virt. eigenvalues --    5.53954   5.56419   5.59759   5.61650   5.62659
 Alpha virt. eigenvalues --    5.69682   5.70044   6.14127   6.15247   6.18103
 Alpha virt. eigenvalues --    6.19214   6.40073   6.40928   6.46448   6.58198
 Alpha virt. eigenvalues --    6.65907   6.72174   6.72554   6.74189   6.78792
 Alpha virt. eigenvalues --    6.81835   7.02136   7.75201   7.75507   7.81614
 Alpha virt. eigenvalues --   11.03712  11.05273  11.07202  11.08807  11.09998
 Alpha virt. eigenvalues --   11.11565  11.12144  11.12907  11.13857  11.15788
 Alpha virt. eigenvalues --   11.19294  11.30693  11.31021  11.31783  14.41427
 Alpha virt. eigenvalues --   32.24455  32.24881  32.31929  43.60905  44.15378
 Alpha virt. eigenvalues --   44.15997  44.21965  44.50016  49.07359  49.09451
 Alpha virt. eigenvalues --   49.11230  49.12845  49.13356  49.13853  49.14631
 Alpha virt. eigenvalues --   49.20331  49.27670  49.35384  49.35910  49.36678
 Alpha virt. eigenvalues --   92.53200 157.82450 157.86272 157.87796 157.92066
          Condensed to atoms (all electrons):
               1          2          3          4          5          6
     1  Si  12.075438   0.409637  -0.051773   0.400947   0.396690   0.397606
     2  O    0.409637   7.690055   0.412486  -0.016145  -0.021431  -0.016467
     3  Si  -0.051773   0.412486  12.067034   0.001186  -0.003110  -0.000608
     4  H    0.400947  -0.016145   0.001186   0.724628  -0.023761  -0.026485
     5  H    0.396690  -0.021431  -0.003110  -0.023761   0.731523  -0.025182
     6  H    0.397606  -0.016467  -0.000608  -0.026485  -0.025182   0.728506
     7  H    0.001749  -0.016103   0.397224   0.000201  -0.000122  -0.000132
     8  H   -0.003277  -0.022181   0.397399  -0.000062   0.003076  -0.000199
     9  H   -0.000705  -0.016907   0.395920  -0.000136  -0.000137   0.000577
    10  Al  -0.000141  -0.001019   0.001231  -0.000062   0.000420   0.000340
    11  Cl  -0.000424  -0.000279  -0.000490   0.000002  -0.000125   0.000117
    12  Cl  -0.000010   0.000014  -0.000070   0.000001  -0.000058  -0.000000
    13  Cl   0.000004  -0.000002  -0.000196  -0.000000  -0.000001  -0.000000
    14  Cl  -0.000000   0.000000  -0.000002   0.000000  -0.000000  -0.000000
               7          8          9         10         11         12
     1  Si   0.001749  -0.003277  -0.000705  -0.000141  -0.000424  -0.000010
     2  O   -0.016103  -0.022181  -0.016907  -0.001019  -0.000279   0.000014
     3  Si   0.397224   0.397399   0.395920   0.001231  -0.000490  -0.000070
     4  H    0.000201  -0.000062  -0.000136  -0.000062   0.000002   0.000001
     5  H   -0.000122   0.003076  -0.000137   0.000420  -0.000125  -0.000058
     6  H   -0.000132  -0.000199   0.000577   0.000340   0.000117  -0.000000
     7  H    0.733301  -0.023472  -0.027960  -0.000355   0.000010   0.000003
     8  H   -0.023472   0.729001  -0.024965   0.001740  -0.000190  -0.000216
     9  H   -0.027960  -0.024965   0.729537   0.001833  -0.000126  -0.000004
    10  Al  -0.000355   0.001740   0.001833   0.001033  -0.000237  -0.000070
    11  Cl   0.000010  -0.000190  -0.000126  -0.000237   0.000190   0.000005
    12  Cl   0.000003  -0.000216  -0.000004  -0.000070   0.000005   0.000034
    13  Cl  -0.000008  -0.000032  -0.000042  -0.000103   0.000009   0.000005
    14  Cl   0.000000  -0.000000  -0.000002  -0.000050   0.000009   0.000000
              13         14
     1  Si   0.000004  -0.000000
     2  O   -0.000002   0.000000
     3  Si  -0.000196  -0.000002
     4  H   -0.000000   0.000000
     5  H   -0.000001  -0.000000
     6  H   -0.000000  -0.000000
     7  H   -0.000008   0.000000
     8  H   -0.000032  -0.000000
     9  H   -0.000042  -0.000002
    10  Al  -0.000103  -0.000050
    11  Cl   0.000009   0.000009
    12  Cl   0.000005   0.000000
    13  Cl   0.000067   0.000003
    14  Cl   0.000003   0.000033
 Mulliken charges:
               1
     1  Si   0.374259
     2  O   -0.401660
     3  Si   0.383769
     4  H   -0.060315
     5  H   -0.057782
     6  H   -0.058073
     7  H   -0.064338
     8  H   -0.056620
     9  H   -0.056882
    10  Al  -0.004561
    11  Cl   0.001530
    12  Cl   0.000366
    13  Cl   0.000296
    14  Cl   0.000010
 Sum of Mulliken charges =  -0.00000
 Mulliken charges with hydrogens summed into heavy atoms:
               1
     1  Si   0.198089
     2  O   -0.401660
     3  Si   0.205930
    10  Al  -0.004561
    11  Cl   0.001530
    12  Cl   0.000366
    13  Cl   0.000296
    14  Cl   0.000010
         Mulliken charges condensed to fragments:
      1      0.002359
      2     -0.002359
 Electronic spatial extent (au):  <R**2>=           1689.6438
 Charge=             -0.0000 electrons
 Dipole moment (field-independent basis, Debye):
    X=              0.5738    Y=             -0.1108    Z=              0.0952  Tot=              0.5921
 Quadrupole moment (field-independent basis, Debye-Ang):
   XX=            -39.7246   YY=            -34.8632   ZZ=            -36.2393
   XY=              0.9313   XZ=             -0.4136   YZ=              0.0515
 Traceless Quadrupole moment (field-independent basis, Debye-Ang):
   XX=             -2.7822   YY=              2.0792   ZZ=              0.7031
   XY=              0.9313   XZ=             -0.4136   YZ=              0.0515
 Octapole moment (field-independent basis, Debye-Ang**2):
  XXX=            323.2992  YYY=            -13.7524  ZZZ=             -0.9043  XYY=            100.0415
  XXY=             -7.8648  XXZ=             -0.4725  XZZ=            100.8517  YZZ=             -3.7978
  YYZ=             -0.3008  XYZ=              0.3988
 Hexadecapole moment (field-independent basis, Debye-Ang**3):
 XXXX=          -1935.4538 YYYY=           -527.5558 ZZZZ=            -88.6885 XXXY=            -19.6825
 XXXZ=             10.2774 YYYX=            -17.5899 YYYZ=             -3.9052 ZZZX=              0.5162
 ZZZY=             -1.8791 XXYY=           -399.7431 XXZZ=           -318.1141 YYZZ=           -109.0383
 XXYZ=             -1.5347 YYXZ=              2.7319 ZZXY=            -12.1757
 N-N= 1.578235695842D+02 E-N=-1.880137643238D+03  KE= 6.560931775128D+02
 No NMR shielding tensors so no spin-rotation constants.
 Leave Link  601 at Wed Jun 24 01:18:11 2026, MaxMem=  1879048192 cpu:               0.4 elap:               0.1
 (Enter /CH/g16/l122.exe)
 CPIOFr:  IOpCl= 0 IRwI=-1 IRwCP=  731 ICalc=  1 LCPTot=      163064 Len1MO=      432554 IndFrg=     1028172
 Counterpoise: doing calculation for fragment   2 using the basis set of the full-system, NewBq=T
 Leave Link  122 at Wed Jun 24 01:18:11 2026, MaxMem=  1879048192 cpu:               0.0 elap:               0.0
 (Enter /CH/g16/l301.exe)
 Basis read from rwf:  (5D, 7F)
 Pseudo-potential data read from rwf file.
 There are   366 symmetry adapted cartesian basis functions of A   symmetry.
 There are   326 symmetry adapted basis functions of A   symmetry.
   326 basis functions,   582 primitive gaussians,   366 cartesian basis functions
    41 alpha electrons       41 beta electrons
       nuclear repulsion energy       475.5166185524 Hartrees.
 IExCor=  402 DFT=T Ex+Corr=B3LYP ExCW=0 ScaHFX=  0.200000
 ScaDFX=  0.800000  0.720000  1.000000  0.810000 ScalE2=  1.000000  1.000000
 IRadAn=      5 IRanWt=     -1 IRanGd=            0 ICorTp=0 IEmpDi=141
 NAtoms=   14 NActive=   14 NUniq=   14 SFac= 1.00D+00 NAtFMM=   60 NAOKFM=F Big=F
 Integral buffers will be    131072 words long.
 Raffenetti 2 integral format.
 Two-electron integral symmetry is turned on.
 R6Disp:  Grimme-D3(BJ) Dispersion energy=       -0.0148179380 Hartrees.
 Nuclear repulsion after empirical dispersion term =      475.5018006144 Hartrees.
 No density basis found on file    718.
 Leave Link  301 at Wed Jun 24 01:18:11 2026, MaxMem=  1879048192 cpu:               0.0 elap:               0.0
 (Enter /CH/g16/l302.exe)
 NPDir=0 NMtPBC=     1 NCelOv=     1 NCel=       1 NClECP=     1 NCelD=      1
         NCelK=      1 NCelE2=     1 NClLst=     1 CellRange=     0.0.
 One-electron integrals computed using PRISM.
 One-electron integral symmetry used in STVInt
   1 Symmetry operations used in ECPInt.
 ECPInt:  NShTT=    8001 NPrTT=   30427 LenC2=    7124 LenP2D=   18631.
 LDataN:  DoStor=T MaxTD1= 6 Len=  172
 NBasis=   326 RedAO= T EigKep=  1.93D-03  NBF=   326
 NBsUse=   326 1.00D-06 EigRej= -1.00D+00 NBFU=   326
 Precomputing XC quadrature grid using
 IXCGrd= 4 IRadAn=           5 IRanWt=          -1 IRanGd=           0 AccXCQ= 0.00D+00.
 Generated NRdTot=       0 NPtTot=           0 NUsed=           0 NTot=          32
 NSgBfM=   357   357   357   357   357 MxSgAt=    14 MxSgA2=    14.
 Leave Link  302 at Wed Jun 24 01:18:12 2026, MaxMem=  1879048192 cpu:               0.7 elap:               0.1
 (Enter /CH/g16/l303.exe)
 DipDrv:  MaxL=1.
 Leave Link  303 at Wed Jun 24 01:18:12 2026, MaxMem=  1879048192 cpu:               0.1 elap:               0.0
 (Enter /CH/g16/l401.exe)
 ExpMin= 5.79D-02 ExpMax= 6.95D+04 ExpMxC= 2.37D+03 IAcc=3 IRadAn=         5 AccDes= 0.00D+00
 Harris functional with IExCor=  402 and IRadAn=       5 diagonalized for initial guess.
 HarFok:  IExCor=  402 AccDes= 0.00D+00 IRadAn=         5 IDoV= 1 UseB2=F ITyADJ=14
 ICtDFT=  3500011 ScaDFX=  1.000000  1.000000  1.000000  1.000000
 FoFCou: FMM=F IPFlag=           0 FMFlag=      100000 FMFlg1=           0
         NFxFlg=           0 DoJE=T BraDBF=F KetDBF=T FulRan=T
         wScrn=  0.000000 ICntrl=       500 IOpCl=  0 I1Cent=   200000004 NGrid=           0
         NMat0=    1 NMatS0=      1 NMatT0=    0 NMatD0=    1 NMtDS0=    0 NMtDT0=    0
 Petite list used in FoFCou.
 Harris En= -2083.52739440651    
 JPrj=0 DoOrth=F DoCkMO=F.
 Leave Link  401 at Wed Jun 24 01:18:12 2026, MaxMem=  1879048192 cpu:               3.1 elap:               0.4
 (Enter /CH/g16/l502.exe)
 Integral symmetry usage will be decided dynamically.
 Closed shell SCF:
 Using DIIS extrapolation, IDIIS=  1040.
 NGot=  1879048192 LenX=  1878773782 LenY=  1878639385
 Requested convergence on RMS density matrix=1.00D-08 within 128 cycles.
 Requested convergence on MAX density matrix=1.00D-06.
 Requested convergence on             energy=1.00D-06.
 No special actions if energy rises.
 Fock matrices will be formed incrementally for  20 cycles.
 Integral accuracy reduced to 1.0D-05 until final iterations.

 Cycle   1  Pass 0  IDiag  1:
 FoFJK:  IHMeth= 1 ICntrl=       0 DoSepK=F KAlg= 0 I1Cent=           0 FoldK=F
 IRaf= 840000000 NMat=       1 IRICut=       1 DoRegI=T DoRafI=F ISym2E= 0 IDoP0=0 IntGTp=1.
 FoFCou: FMM=F IPFlag=           0 FMFlag=      100000 FMFlg1=           0
         NFxFlg=           0 DoJE=F BraDBF=F KetDBF=F FulRan=T
         wScrn=  0.000000 ICntrl=         0 IOpCl=  0 I1Cent=           0 NGrid=           0
         NMat0=    1 NMatS0=      1 NMatT0=    0 NMatD0=    1 NMtDS0=    0 NMtDT0=    0
 Symmetry not used in FoFCou.
 E= -2083.75948561023    
 DIIS: error= 1.55D-02 at cycle   1 NSaved=   1.
 NSaved= 1 IEnMin= 1 EnMin= -2083.75948561023     IErMin= 1 ErrMin= 1.55D-02
 ErrMax= 1.55D-02  0.00D+00 EMaxC= 1.00D-01 BMatC= 1.01D-01 BMatP= 1.01D-01
 IDIUse=3 WtCom= 8.45D-01 WtEn= 1.55D-01
 Coeff-Com:  0.100D+01
 Coeff-En:   0.100D+01
 Coeff:      0.100D+01
 Gap=     0.297 Goal=   None    Shift=    0.000
 GapD=    0.297 DampG=1.000 DampE=0.500 DampFc=0.5000 IDamp=-1.
 Damping current iteration by 5.00D-01
 RMSDP=7.39D-04 MaxDP=4.86D-02              OVMax= 3.72D-02

 Cycle   2  Pass 0  IDiag  1:
 RMSU=  3.60D-04    CP:  9.95D-01
 E= -2083.77292195085     Delta-E=       -0.013436340628 Rises=F Damp=T
 DIIS: error= 7.57D-03 at cycle   2 NSaved=   2.
 NSaved= 2 IEnMin= 2 EnMin= -2083.77292195085     IErMin= 2 ErrMin= 7.57D-03
 ErrMax= 7.57D-03  0.00D+00 EMaxC= 1.00D-01 BMatC= 1.97D-02 BMatP= 1.01D-01
 IDIUse=3 WtCom= 9.24D-01 WtEn= 7.57D-02
 Coeff-Com: -0.576D+00 0.158D+01
 Coeff-En:   0.000D+00 0.100D+01
 Coeff:     -0.533D+00 0.153D+01
 Gap=     0.301 Goal=   None    Shift=    0.000
 RMSDP=1.55D-04 MaxDP=8.48D-03 DE=-1.34D-02 OVMax= 2.46D-02

 Cycle   3  Pass 0  IDiag  1:
 RMSU=  1.40D-04    CP:  9.96D-01  8.25D-01
 E= -2083.78300801010     Delta-E=       -0.010086059241 Rises=F Damp=F
 DIIS: error= 2.99D-03 at cycle   3 NSaved=   3.
 NSaved= 3 IEnMin= 3 EnMin= -2083.78300801010     IErMin= 3 ErrMin= 2.99D-03
 ErrMax= 2.99D-03  0.00D+00 EMaxC= 1.00D-01 BMatC= 3.25D-03 BMatP= 1.97D-02
 IDIUse=3 WtCom= 9.70D-01 WtEn= 2.99D-02
 Coeff-Com: -0.276D+00 0.662D+00 0.614D+00
 Coeff-En:   0.000D+00 0.000D+00 0.100D+01
 Coeff:     -0.268D+00 0.642D+00 0.625D+00
 Gap=     0.290 Goal=   None    Shift=    0.000
 RMSDP=1.46D-04 MaxDP=1.17D-02 DE=-1.01D-02 OVMax= 7.73D-03

 Cycle   4  Pass 0  IDiag  1:
 RMSU=  1.81D-05    CP:  9.94D-01  1.19D+00  6.13D-01
 E= -2083.78504086038     Delta-E=       -0.002032850286 Rises=F Damp=F
 DIIS: error= 2.63D-04 at cycle   4 NSaved=   4.
 NSaved= 4 IEnMin= 4 EnMin= -2083.78504086038     IErMin= 4 ErrMin= 2.63D-04
 ErrMax= 2.63D-04  0.00D+00 EMaxC= 1.00D-01 BMatC= 3.39D-05 BMatP= 3.25D-03
 IDIUse=3 WtCom= 9.97D-01 WtEn= 2.63D-03
 Coeff-Com: -0.550D-01 0.114D+00 0.141D+00 0.800D+00
 Coeff-En:   0.000D+00 0.000D+00 0.000D+00 0.100D+01
 Coeff:     -0.548D-01 0.113D+00 0.141D+00 0.801D+00
 Gap=     0.291 Goal=   None    Shift=    0.000
 RMSDP=1.26D-05 MaxDP=1.13D-03 DE=-2.03D-03 OVMax= 1.03D-03

 Cycle   5  Pass 0  IDiag  1:
 RMSU=  7.32D-06    CP:  9.94D-01  1.17D+00  6.57D-01  7.81D-01
 E= -2083.78504866787     Delta-E=       -0.000007807485 Rises=F Damp=F
 DIIS: error= 9.76D-05 at cycle   5 NSaved=   5.
 NSaved= 5 IEnMin= 5 EnMin= -2083.78504866787     IErMin= 5 ErrMin= 9.76D-05
 ErrMax= 9.76D-05  0.00D+00 EMaxC= 1.00D-01 BMatC= 3.98D-06 BMatP= 3.39D-05
 IDIUse=1 WtCom= 1.00D+00 WtEn= 0.00D+00
 Coeff-Com: -0.208D-01 0.411D-01 0.504D-01 0.394D+00 0.535D+00
 Coeff:     -0.208D-01 0.411D-01 0.504D-01 0.394D+00 0.535D+00
 Gap=     0.291 Goal=   None    Shift=    0.000
 RMSDP=5.58D-06 MaxDP=7.27D-04 DE=-7.81D-06 OVMax= 5.87D-04

 Initial convergence to 1.0D-05 achieved.  Increase integral accuracy.
 Cycle   6  Pass 1  IDiag  1:
 E= -2083.78503314191     Delta-E=        0.000015525951 Rises=F Damp=F
 DIIS: error= 3.61D-05 at cycle   1 NSaved=   1.
 NSaved= 1 IEnMin= 1 EnMin= -2083.78503314191     IErMin= 1 ErrMin= 3.61D-05
 ErrMax= 3.61D-05  0.00D+00 EMaxC= 1.00D-01 BMatC= 6.17D-07 BMatP= 6.17D-07
 IDIUse=1 WtCom= 1.00D+00 WtEn= 0.00D+00
 Coeff-Com:  0.100D+01
 Coeff:      0.100D+01
 Gap=     0.291 Goal=   None    Shift=    0.000
 RMSDP=5.58D-06 MaxDP=7.27D-04 DE= 1.55D-05 OVMax= 2.91D-04

 Cycle   7  Pass 1  IDiag  1:
 RMSU=  9.71D-06    CP:  1.00D+00
 E= -2083.78503317909     Delta-E=       -0.000000037175 Rises=F Damp=F
 DIIS: error= 3.69D-05 at cycle   2 NSaved=   2.
 NSaved= 2 IEnMin= 2 EnMin= -2083.78503317909     IErMin= 1 ErrMin= 3.61D-05
 ErrMax= 3.69D-05  0.00D+00 EMaxC= 1.00D-01 BMatC= 4.43D-07 BMatP= 6.17D-07
 IDIUse=1 WtCom= 1.00D+00 WtEn= 0.00D+00
 Coeff-Com:  0.449D+00 0.551D+00
 Coeff:      0.449D+00 0.551D+00
 Gap=     0.291 Goal=   None    Shift=    0.000
 RMSDP=2.19D-06 MaxDP=2.81D-04 DE=-3.72D-08 OVMax= 2.17D-04

 Cycle   8  Pass 1  IDiag  1:
 RMSU=  2.10D-06    CP:  1.00D+00  9.38D-01
 E= -2083.78503360324     Delta-E=       -0.000000424156 Rises=F Damp=F
 DIIS: error= 1.25D-05 at cycle   3 NSaved=   3.
 NSaved= 3 IEnMin= 3 EnMin= -2083.78503360324     IErMin= 3 ErrMin= 1.25D-05
 ErrMax= 1.25D-05  0.00D+00 EMaxC= 1.00D-01 BMatC= 4.80D-08 BMatP= 4.43D-07
 IDIUse=1 WtCom= 1.00D+00 WtEn= 0.00D+00
 Coeff-Com:  0.265D-01 0.250D+00 0.724D+00
 Coeff:      0.265D-01 0.250D+00 0.724D+00
 Gap=     0.291 Goal=   None    Shift=    0.000
 RMSDP=5.84D-07 MaxDP=7.91D-05 DE=-4.24D-07 OVMax= 6.30D-05

 Cycle   9  Pass 1  IDiag  1:
 RMSU=  2.66D-07    CP:  1.00D+00  9.58D-01  7.72D-01
 E= -2083.78503365511     Delta-E=       -0.000000051866 Rises=F Damp=F
 DIIS: error= 2.70D-06 at cycle   4 NSaved=   4.
 NSaved= 4 IEnMin= 4 EnMin= -2083.78503365511     IErMin= 4 ErrMin= 2.70D-06
 ErrMax= 2.70D-06  0.00D+00 EMaxC= 1.00D-01 BMatC= 2.33D-09 BMatP= 4.80D-08
 IDIUse=1 WtCom= 1.00D+00 WtEn= 0.00D+00
 Coeff-Com: -0.155D-02 0.999D-01 0.343D+00 0.559D+00
 Coeff:     -0.155D-02 0.999D-01 0.343D+00 0.559D+00
 Gap=     0.291 Goal=   None    Shift=    0.000
 RMSDP=1.24D-07 MaxDP=9.52D-06 DE=-5.19D-08 OVMax= 7.35D-06

 Cycle  10  Pass 1  IDiag  1:
 RMSU=  2.52D-08    CP:  1.00D+00  9.60D-01  7.77D-01  5.57D-01
 E= -2083.78503365678     Delta-E=       -0.000000001669 Rises=F Damp=F
 DIIS: error= 2.34D-07 at cycle   5 NSaved=   5.
 NSaved= 5 IEnMin= 5 EnMin= -2083.78503365678     IErMin= 5 ErrMin= 2.34D-07
 ErrMax= 2.34D-07  0.00D+00 EMaxC= 1.00D-01 BMatC= 1.51D-11 BMatP= 2.33D-09
 IDIUse=1 WtCom= 1.00D+00 WtEn= 0.00D+00
 Coeff-Com: -0.109D-02 0.309D-01 0.110D+00 0.181D+00 0.679D+00
 Coeff:     -0.109D-02 0.309D-01 0.110D+00 0.181D+00 0.679D+00
 Gap=     0.291 Goal=   None    Shift=    0.000
 RMSDP=5.72D-09 MaxDP=3.53D-07 DE=-1.67D-09 OVMax= 3.92D-07

 SCF Done:  E(RB3LYP) =  -2083.78503366     A.U. after   10 cycles
            NFock= 10  Conv=0.57D-08     -V/T= 2.0015
 KE= 2.080649858438D+03 PE=-5.924995941662D+03 EE= 1.285059248953D+03
 Leave Link  502 at Wed Jun 24 01:18:24 2026, MaxMem=  1879048192 cpu:              93.9 elap:              12.2
 (Enter /CH/g16/l601.exe)
 Copying SCF densities to generalized density rwf, IOpCl= 0 IROHF=0.

 **********************************************************************

            Population analysis using the SCF Density.

 **********************************************************************

 Orbital symmetries:
       Occupied  (A) (A) (A) (A) (A) (A) (A) (A) (A) (A) (A) (A)
                 (A) (A) (A) (A) (A) (A) (A) (A) (A) (A) (A) (A)
                 (A) (A) (A) (A) (A) (A) (A) (A) (A) (A) (A) (A)
                 (A) (A) (A) (A) (A)
       Virtual   (A) (A) (A) (A) (A) (A) (A) (A) (A) (A) (A) (A)
                 (A) (A) (A) (A) (A) (A) (A) (A) (A) (A) (A) (A)
                 (A) (A) (A) (A) (A) (A) (A) (A) (A) (A) (A) (A)
                 (A) (A) (A) (A) (A) (A) (A) (A) (A) (A) (A) (A)
                 (A) (A) (A) (A) (A) (A) (A) (A) (A) (A) (A) (A)
                 (A) (A) (A) (A) (A) (A) (A) (A) (A) (A) (A) (A)
                 (A) (A) (A) (A) (A) (A) (A) (A) (A) (A) (A) (A)
                 (A) (A) (A) (A) (A) (A) (A) (A) (A) (A) (A) (A)
                 (A) (A) (A) (A) (A) (A) (A) (A) (A) (A) (A) (A)
                 (A) (A) (A) (A) (A) (A) (A) (A) (A) (A) (A) (A)
                 (A) (A) (A) (A) (A) (A) (A) (A) (A) (A) (A) (A)
                 (A) (A) (A) (A) (A) (A) (A) (A) (A) (A) (A) (A)
                 (A) (A) (A) (A) (A) (A) (A) (A) (A) (A) (A) (A)
                 (A) (A) (A) (A) (A) (A) (A) (A) (A) (A) (A) (A)
                 (A) (A) (A) (A) (A) (A) (A) (A) (A) (A) (A) (A)
                 (A) (A) (A) (A) (A) (A) (A) (A) (A) (A) (A) (A)
                 (A) (A) (A) (A) (A) (A) (A) (A) (A) (A) (A) (A)
                 (A) (A) (A) (A) (A) (A) (A) (A) (A) (A) (A) (A)
                 (A) (A) (A) (A) (A) (A) (A) (A) (A) (A) (A) (A)
                 (A) (A) (A) (A) (A) (A) (A) (A) (A) (A) (A) (A)
                 (A) (A) (A) (A) (A) (A) (A) (A) (A) (A) (A) (A)
                 (A) (A) (A) (A) (A) (A) (A) (A) (A) (A) (A) (A)
                 (A) (A) (A) (A) (A) (A) (A) (A) (A) (A) (A) (A)
                 (A) (A) (A) (A) (A) (A) (A) (A) (A)
 The electronic state is 1-A.
 Alpha  occ. eigenvalues -- -101.34061-101.34045-101.33930-101.33861 -55.91875
 Alpha  occ. eigenvalues --   -9.27479  -9.27464  -9.27354  -9.27266  -7.03250
 Alpha  occ. eigenvalues --   -7.03235  -7.03125  -7.03038  -7.02946  -7.02943
 Alpha  occ. eigenvalues --   -7.02931  -7.02928  -7.02819  -7.02819  -7.02735
 Alpha  occ. eigenvalues --   -7.02731  -4.01954  -2.57268  -2.57264  -2.57262
 Alpha  occ. eigenvalues --   -0.65708  -0.63789  -0.63717  -0.63541  -0.28784
 Alpha  occ. eigenvalues --   -0.21955  -0.21906  -0.21787  -0.17637  -0.17622
 Alpha  occ. eigenvalues --   -0.16891  -0.16864  -0.16838  -0.14936  -0.14852
 Alpha  occ. eigenvalues --   -0.14811
 Alpha virt. eigenvalues --    0.14247   0.17181   0.17621   0.19907   0.21500
 Alpha virt. eigenvalues --    0.21584   0.22210   0.23019   0.24535   0.25350
 Alpha virt. eigenvalues --    0.25627   0.27655   0.28734   0.29927   0.30690
 Alpha virt. eigenvalues --    0.31572   0.32733   0.33729   0.34278   0.34916
 Alpha virt. eigenvalues --    0.35783   0.36925   0.37781   0.39086   0.40178
 Alpha virt. eigenvalues --    0.40775   0.41443   0.46454   0.47804   0.48244
 Alpha virt. eigenvalues --    0.49487   0.50362   0.51000   0.51259   0.51528
 Alpha virt. eigenvalues --    0.52643   0.53568   0.55285   0.55620   0.56531
 Alpha virt. eigenvalues --    0.57420   0.57814   0.58660   0.58969   0.59402
 Alpha virt. eigenvalues --    0.59868   0.62619   0.63116   0.63684   0.65348
 Alpha virt. eigenvalues --    0.66703   0.67726   0.68455   0.69526   0.69982
 Alpha virt. eigenvalues --    0.70571   0.71544   0.71992   0.73141   0.74537
 Alpha virt. eigenvalues --    0.74705   0.75414   0.75789   0.76671   0.78509
 Alpha virt. eigenvalues --    0.79832   0.80485   0.81016   0.82651   0.83935
 Alpha virt. eigenvalues --    0.86061   0.87717   0.88868   0.89557   0.91171
 Alpha virt. eigenvalues --    0.92119   0.93775   0.94538   0.97159   0.98696
 Alpha virt. eigenvalues --    0.99086   1.01183   1.02737   1.04040   1.08430
 Alpha virt. eigenvalues --    1.10860   1.12193   1.13180   1.14998   1.17782
 Alpha virt. eigenvalues --    1.19395   1.21824   1.23810   1.24091   1.24418
 Alpha virt. eigenvalues --    1.24789   1.24934   1.25566   1.25727   1.26569
 Alpha virt. eigenvalues --    1.27381   1.28565   1.29620   1.48496   1.56148
 Alpha virt. eigenvalues --    1.59720   1.63998   1.67542   1.71412   1.71628
 Alpha virt. eigenvalues --    1.72197   1.73568   1.79818   1.82338   1.87001
 Alpha virt. eigenvalues --    1.89643   1.90708   1.91035   1.92158   1.92557
 Alpha virt. eigenvalues --    1.92786   1.94280   1.95079   1.96328   1.98017
 Alpha virt. eigenvalues --    1.98628   1.98941   2.00291   2.02885   2.03556
 Alpha virt. eigenvalues --    2.04118   2.04769   2.04902   2.06367   2.06724
 Alpha virt. eigenvalues --    2.07167   2.07891   2.09189   2.09963   2.10686
 Alpha virt. eigenvalues --    2.13730   2.15069   2.15431   2.17202   2.17506
 Alpha virt. eigenvalues --    2.19157   2.19466   2.22057   2.22789   2.22919
 Alpha virt. eigenvalues --    2.23608   2.23674   2.24829   2.24904   2.24952
 Alpha virt. eigenvalues --    2.24995   2.25092   2.25227   2.26697   2.27454
 Alpha virt. eigenvalues --    2.27566   2.28720   2.35852   2.36856   2.37430
 Alpha virt. eigenvalues --    2.37743   2.37944   2.38412   2.39288   2.39836
 Alpha virt. eigenvalues --    2.39913   2.40989   2.41722   2.42050   2.43253
 Alpha virt. eigenvalues --    2.44162   2.45389   2.45865   2.47817   2.48681
 Alpha virt. eigenvalues --    2.50058   2.51634   2.52691   2.53759   2.55045
 Alpha virt. eigenvalues --    2.56640   2.56825   2.59012   2.60151   2.61045
 Alpha virt. eigenvalues --    2.61625   2.62080   2.62820   2.63523   2.63746
 Alpha virt. eigenvalues --    2.65129   2.66789   2.67090   2.67750   2.68483
 Alpha virt. eigenvalues --    2.69958   2.71105   2.72620   2.74037   2.74281
 Alpha virt. eigenvalues --    2.74679   2.76526   2.78402   2.79164   2.93713
 Alpha virt. eigenvalues --    2.95478   3.02365   3.03157   3.08977   3.18471
 Alpha virt. eigenvalues --    3.20333   3.28823   3.85362   3.97600   3.99002
 Alpha virt. eigenvalues --    4.04971   4.07129   4.15069   4.27769   4.43132
 Alpha virt. eigenvalues --    4.44049   4.46309   4.48477   4.51310   4.54057
 Alpha virt. eigenvalues --    4.58155   4.85302   6.21437   6.22146   6.23943
 Alpha virt. eigenvalues --    6.26904   6.32803   6.34530   6.54220   6.54894
 Alpha virt. eigenvalues --    6.71450   6.75490   6.86713   7.13436   7.22727
 Alpha virt. eigenvalues --    7.94550   9.03185   9.18361   9.50783   9.51261
 Alpha virt. eigenvalues --    9.57741   9.65222   9.65813   9.77311   9.92978
 Alpha virt. eigenvalues --   10.32179  10.41397  10.85925  10.87770  10.89914
 Alpha virt. eigenvalues --   10.90157  10.90975  10.92944  10.93507  10.99582
 Alpha virt. eigenvalues --   11.12117  11.12773  11.13084  11.14560  19.05833
 Alpha virt. eigenvalues --   19.89427  20.03181  24.97718  24.98807  25.01425
 Alpha virt. eigenvalues --   25.25845  28.58245  28.59582  28.61806  28.64904
 Alpha virt. eigenvalues --   28.90771  28.98952 107.35672 107.37065 126.59398
          Condensed to atoms (all electrons):
               1          2          3          4          5          6
     1  Si   0.004268  -0.001151  -0.000667  -0.000528  -0.001080  -0.000342
     2  O   -0.001151   0.001183  -0.000576  -0.000054   0.000111   0.000022
     3  Si  -0.000667  -0.000576   0.004180   0.000067   0.000164   0.000015
     4  H   -0.000528  -0.000054   0.000067   0.000609   0.000003   0.000107
     5  H   -0.001080   0.000111   0.000164   0.000003   0.001457   0.000075
     6  H   -0.000342   0.000022   0.000015   0.000107   0.000075   0.000509
     7  H   -0.000015  -0.000116  -0.000624   0.000001   0.000001  -0.000001
     8  H    0.000044   0.000057  -0.000765  -0.000005   0.000043   0.000005
     9  H    0.000146   0.000011  -0.000838  -0.000000   0.000000   0.000000
    10  Al  -0.000334   0.000016   0.000035   0.000001   0.000333   0.000107
    11  Cl   0.010829  -0.001700   0.006265   0.000226   0.000981   0.002959
    12  Cl  -0.001439   0.000021  -0.000759  -0.000007   0.004697   0.000036
    13  Cl   0.000067   0.000025   0.001774  -0.000000  -0.000010   0.000004
    14  Cl  -0.000024   0.000000  -0.000054  -0.000000  -0.000006   0.000002
               7          8          9         10         11         12
     1  Si  -0.000015   0.000044   0.000146  -0.000334   0.010829  -0.001439
     2  O   -0.000116   0.000057   0.000011   0.000016  -0.001700   0.000021
     3  Si  -0.000624  -0.000765  -0.000838   0.000035   0.006265  -0.000759
     4  H    0.000001  -0.000005  -0.000000   0.000001   0.000226  -0.000007
[...]
 Leave Link  122 at Wed Jun 24 01:18:26 2026, MaxMem=  1879048192 cpu:               0.0 elap:               0.0
 (Enter /CH/g16/l301.exe)
 Basis read from rwf:  (5D, 7F)
 Pseudo-potential data read from rwf file.
 There are   210 symmetry adapted cartesian basis functions of A   symmetry.
 There are   185 symmetry adapted basis functions of A   symmetry.
   185 basis functions,   345 primitive gaussians,   210 cartesian basis functions
    41 alpha electrons       41 beta electrons
       nuclear repulsion energy       475.5166185524 Hartrees.
 IExCor=  402 DFT=T Ex+Corr=B3LYP ExCW=0 ScaHFX=  0.200000
 ScaDFX=  0.800000  0.720000  1.000000  0.810000 ScalE2=  1.000000  1.000000
 IRadAn=      5 IRanWt=     -1 IRanGd=            0 ICorTp=0 IEmpDi=141
 NAtoms=   14 NActive=    5 NUniq=    5 SFac= 1.00D+00 NAtFMM=   60 NAOKFM=F Big=F
 Integral buffers will be    131072 words long.
 Raffenetti 2 integral format.
 Two-electron integral symmetry is turned on.
 R6Disp:  Grimme-D3(BJ) Dispersion energy=       -0.0148179380 Hartrees.
 Nuclear repulsion after empirical dispersion term =      475.5018006144 Hartrees.
 No density basis found on file    718.
 Leave Link  301 at Wed Jun 24 01:18:27 2026, MaxMem=  1879048192 cpu:               0.0 elap:               0.0
 (Enter /CH/g16/l302.exe)
 NPDir=0 NMtPBC=     1 NCelOv=     1 NCel=       1 NClECP=     1 NCelD=      1
         NCelK=      1 NCelE2=     1 NClLst=     1 CellRange=     0.0.
 One-electron integrals computed using PRISM.
 One-electron integral symmetry used in STVInt
   1 Symmetry operations used in ECPInt.
 ECPInt:  NShTT=    2145 NPrTT=    9360 LenC2=    1998 LenP2D=    6281.
 LDataN:  DoStor=T MaxTD1= 6 Len=  172
 NBasis=   185 RedAO= T EigKep=  1.01D-02  NBF=   185
 NBsUse=   185 1.00D-06 EigRej= -1.00D+00 NBFU=   185
 Precomputing XC quadrature grid using
 IXCGrd= 4 IRadAn=           5 IRanWt=          -1 IRanGd=           0 AccXCQ= 0.00D+00.
 Generated NRdTot=       0 NPtTot=           0 NUsed=           0 NTot=          32
 NSgBfM=   208   208   208   208   208 MxSgAt=     5 MxSgA2=     5.
 Leave Link  302 at Wed Jun 24 01:18:27 2026, MaxMem=  1879048192 cpu:               0.4 elap:               0.1
 (Enter /CH/g16/l303.exe)
 DipDrv:  MaxL=1.
 Leave Link  303 at Wed Jun 24 01:18:27 2026, MaxMem=  1879048192 cpu:               0.0 elap:               0.0
 (Enter /CH/g16/l401.exe)
 ExpMin= 5.79D-02 ExpMax= 6.95D+04 ExpMxC= 2.37D+03 IAcc=3 IRadAn=         5 AccDes= 0.00D+00
 Harris functional with IExCor=  402 and IRadAn=       5 diagonalized for initial guess.
 HarFok:  IExCor=  402 AccDes= 0.00D+00 IRadAn=         5 IDoV= 1 UseB2=F ITyADJ=14
 ICtDFT=  3500011 ScaDFX=  1.000000  1.000000  1.000000  1.000000
 FoFCou: FMM=F IPFlag=           0 FMFlag=      100000 FMFlg1=           0
         NFxFlg=           0 DoJE=T BraDBF=F KetDBF=T FulRan=T
         wScrn=  0.000000 ICntrl=       500 IOpCl=  0 I1Cent=   200000004 NGrid=           0
         NMat0=    1 NMatS0=      1 NMatT0=    0 NMatD0=    1 NMtDS0=    0 NMtDT0=    0
 Petite list used in FoFCou.
 Harris En= -2083.52672376063    
 JPrj=0 DoOrth=F DoCkMO=F.
 Leave Link  401 at Wed Jun 24 01:18:27 2026, MaxMem=  1879048192 cpu:               1.1 elap:               0.2
 (Enter /CH/g16/l502.exe)
 Keep R1 ints in memory in canonical form, NReq=156325279.
 FoFCou: FMM=F IPFlag=           0 FMFlag=           0 FMFlg1=           0
         NFxFlg=           0 DoJE=F BraDBF=F KetDBF=F FulRan=T
         wScrn=  0.000000 ICntrl=       600 IOpCl=  0 I1Cent=           0 NGrid=           0
         NMat0=    1 NMatS0=  17205 NMatT0=    0 NMatD0=    1 NMtDS0=    0 NMtDT0=    0
 Symmetry not used in FoFCou.
 Two-electron integral symmetry not used.
 Closed shell SCF:
 Using DIIS extrapolation, IDIIS=  1040.
 NGot=  1879048192 LenX=  1730941265 LenY=  1730896724
 Requested convergence on RMS density matrix=1.00D-08 within 128 cycles.
 Requested convergence on MAX density matrix=1.00D-06.
 Requested convergence on             energy=1.00D-06.
 No special actions if energy rises.
 Integral accuracy reduced to 1.0D-05 until final iterations.

 Cycle   1  Pass 0  IDiag  1:
 E= -2083.75828082540    
 DIIS: error= 2.99D-02 at cycle   1 NSaved=   1.
 NSaved= 1 IEnMin= 1 EnMin= -2083.75828082540     IErMin= 1 ErrMin= 2.99D-02
 ErrMax= 2.99D-02  0.00D+00 EMaxC= 1.00D-01 BMatC= 1.01D-01 BMatP= 1.01D-01
 IDIUse=3 WtCom= 7.01D-01 WtEn= 2.99D-01
 Coeff-Com:  0.100D+01
 Coeff-En:   0.100D+01
 Coeff:      0.100D+01
 Gap=     0.306 Goal=   None    Shift=    0.000
 GapD=    0.306 DampG=1.000 DampE=0.500 DampFc=0.5000 IDamp=-1.
 Damping current iteration by 5.00D-01
 RMSDP=1.29D-03 MaxDP=4.92D-02              OVMax= 3.54D-02

 Cycle   2  Pass 0  IDiag  1:
 E= -2083.77179635389     Delta-E=       -0.013515528493 Rises=F Damp=T
 DIIS: error= 1.49D-02 at cycle   2 NSaved=   2.
 NSaved= 2 IEnMin= 2 EnMin= -2083.77179635389     IErMin= 2 ErrMin= 1.49D-02
 ErrMax= 1.49D-02  0.00D+00 EMaxC= 1.00D-01 BMatC= 1.97D-02 BMatP= 1.01D-01
 IDIUse=3 WtCom= 8.51D-01 WtEn= 1.49D-01
 Coeff-Com: -0.576D+00 0.158D+01
 Coeff-En:   0.000D+00 0.100D+01
 Coeff:     -0.491D+00 0.149D+01
 Gap=     0.321 Goal=   None    Shift=    0.000
 RMSDP=2.47D-04 MaxDP=7.05D-03 DE=-1.35D-02 OVMax= 2.31D-02

 Cycle   3  Pass 0  IDiag  1:
 E= -2083.78230623591     Delta-E=       -0.010509882017 Rises=F Damp=F
 DIIS: error= 3.71D-03 at cycle   3 NSaved=   3.
 NSaved= 3 IEnMin= 3 EnMin= -2083.78230623591     IErMin= 3 ErrMin= 3.71D-03
 ErrMax= 3.71D-03  0.00D+00 EMaxC= 1.00D-01 BMatC= 2.74D-03 BMatP= 1.97D-02
 IDIUse=3 WtCom= 9.63D-01 WtEn= 3.71D-02
 Coeff-Com: -0.257D+00 0.624D+00 0.633D+00
 Coeff-En:   0.000D+00 0.000D+00 0.100D+01
 Coeff:     -0.248D+00 0.601D+00 0.647D+00
 Gap=     0.317 Goal=   None    Shift=    0.000
 RMSDP=2.33D-04 MaxDP=1.04D-02 DE=-1.05D-02 OVMax= 6.71D-03

 Cycle   4  Pass 0  IDiag  1:
 E= -2083.78394592232     Delta-E=       -0.001639686412 Rises=F Damp=F
 DIIS: error= 3.78D-04 at cycle   4 NSaved=   4.
 NSaved= 4 IEnMin= 4 EnMin= -2083.78394592232     IErMin= 4 ErrMin= 3.78D-04
 ErrMax= 3.78D-04  0.00D+00 EMaxC= 1.00D-01 BMatC= 3.49D-05 BMatP= 2.74D-03
 IDIUse=3 WtCom= 9.96D-01 WtEn= 3.78D-03
 Coeff-Com: -0.506D-01 0.105D+00 0.148D+00 0.797D+00
 Coeff-En:   0.000D+00 0.000D+00 0.000D+00 0.100D+01
 Coeff:     -0.504D-01 0.105D+00 0.148D+00 0.798D+00
 Gap=     0.317 Goal=   None    Shift=    0.000
 RMSDP=2.31D-05 MaxDP=1.08D-03 DE=-1.64D-03 OVMax= 1.11D-03

 Cycle   5  Pass 0  IDiag  1:
 E= -2083.78395401840     Delta-E=       -0.000008096079 Rises=F Damp=F
 DIIS: error= 1.61D-04 at cycle   5 NSaved=   5.
 NSaved= 5 IEnMin= 5 EnMin= -2083.78395401840     IErMin= 5 ErrMin= 1.61D-04
 ErrMax= 1.61D-04  0.00D+00 EMaxC= 1.00D-01 BMatC= 4.49D-06 BMatP= 3.49D-05
 IDIUse=3 WtCom= 9.98D-01 WtEn= 1.61D-03
 Coeff-Com: -0.198D-01 0.391D-01 0.551D-01 0.405D+00 0.520D+00
 Coeff-En:   0.000D+00 0.000D+00 0.000D+00 0.249D+00 0.751D+00
 Coeff:     -0.197D-01 0.391D-01 0.551D-01 0.405D+00 0.521D+00
 Gap=     0.317 Goal=   None    Shift=    0.000
 RMSDP=1.02D-05 MaxDP=7.77D-04 DE=-8.10D-06 OVMax= 6.25D-04

 Cycle   6  Pass 0  IDiag  1:
 E= -2083.78395854054     Delta-E=       -0.000004522142 Rises=F Damp=F
 DIIS: error= 3.67D-05 at cycle   6 NSaved=   6.
 NSaved= 6 IEnMin= 6 EnMin= -2083.78395854054     IErMin= 6 ErrMin= 3.67D-05
 ErrMax= 3.67D-05  0.00D+00 EMaxC= 1.00D-01 BMatC= 2.57D-07 BMatP= 4.49D-06
 IDIUse=1 WtCom= 1.00D+00 WtEn= 0.00D+00
 Coeff-Com: -0.596D-02 0.114D-01 0.154D-01 0.146D+00 0.257D+00 0.576D+00
 Coeff:     -0.596D-02 0.114D-01 0.154D-01 0.146D+00 0.257D+00 0.576D+00
 Gap=     0.317 Goal=   None    Shift=    0.000
 RMSDP=2.39D-06 MaxDP=1.46D-04 DE=-4.52D-06 OVMax= 1.10D-04

 Initial convergence to 1.0D-05 achieved.  Increase integral accuracy.
 Cycle   7  Pass 1  IDiag  1:
 E= -2083.78396400767     Delta-E=       -0.000005467132 Rises=F Damp=F
 DIIS: error= 5.05D-06 at cycle   1 NSaved=   1.
 NSaved= 1 IEnMin= 1 EnMin= -2083.78396400767     IErMin= 1 ErrMin= 5.05D-06
 ErrMax= 5.05D-06  0.00D+00 EMaxC= 1.00D-01 BMatC= 1.35D-08 BMatP= 1.35D-08
 IDIUse=1 WtCom= 1.00D+00 WtEn= 0.00D+00
 Coeff-Com:  0.100D+01
 Coeff:      0.100D+01
 Gap=     0.317 Goal=   None    Shift=    0.000
 RMSDP=2.39D-06 MaxDP=1.46D-04 DE=-5.47D-06 OVMax= 2.66D-05

 Cycle   8  Pass 1  IDiag  1:
 E= -2083.78396402037     Delta-E=       -0.000000012697 Rises=F Damp=F
 DIIS: error= 2.23D-06 at cycle   2 NSaved=   2.
 NSaved= 2 IEnMin= 2 EnMin= -2083.78396402037     IErMin= 2 ErrMin= 2.23D-06
 ErrMax= 2.23D-06  0.00D+00 EMaxC= 1.00D-01 BMatC= 1.09D-09 BMatP= 1.35D-08
 IDIUse=1 WtCom= 1.00D+00 WtEn= 0.00D+00
 Coeff-Com:  0.909D-01 0.909D+00
 Coeff:      0.909D-01 0.909D+00
 Gap=     0.317 Goal=   None    Shift=    0.000
 RMSDP=3.01D-07 MaxDP=1.58D-05 DE=-1.27D-08 OVMax= 1.43D-05

 Cycle   9  Pass 1  IDiag  1:
 E= -2083.78396402026     Delta-E=        0.000000000110 Rises=F Damp=F
 DIIS: error= 2.64D-06 at cycle   3 NSaved=   3.
 NSaved= 3 IEnMin= 2 EnMin= -2083.78396402037     IErMin= 2 ErrMin= 2.23D-06
 ErrMax= 2.64D-06  0.00D+00 EMaxC= 1.00D-01 BMatC= 1.20D-09 BMatP= 1.09D-09
 IDIUse=1 WtCom= 1.00D+00 WtEn= 0.00D+00
 Coeff-Com: -0.258D-01 0.518D+00 0.507D+00
 Coeff:     -0.258D-01 0.518D+00 0.507D+00
 Gap=     0.317 Goal=   None    Shift=    0.000
 RMSDP=1.55D-07 MaxDP=9.80D-06 DE= 1.10D-10 OVMax= 7.88D-06

 Cycle  10  Pass 1  IDiag  1:
 E= -2083.78396402147     Delta-E=       -0.000000001216 Rises=F Damp=F
 DIIS: error= 2.46D-07 at cycle   4 NSaved=   4.
 NSaved= 4 IEnMin= 4 EnMin= -2083.78396402147     IErMin= 4 ErrMin= 2.46D-07
 ErrMax= 2.46D-07  0.00D+00 EMaxC= 1.00D-01 BMatC= 1.28D-11 BMatP= 1.09D-09
 IDIUse=1 WtCom= 1.00D+00 WtEn= 0.00D+00
 Coeff-Com: -0.123D-01 0.226D+00 0.232D+00 0.554D+00
 Coeff:     -0.123D-01 0.226D+00 0.232D+00 0.554D+00
 Gap=     0.317 Goal=   None    Shift=    0.000
 RMSDP=1.92D-08 MaxDP=1.16D-06 DE=-1.22D-09 OVMax= 1.06D-06

 Cycle  11  Pass 1  IDiag  1:
 E= -2083.78396402151     Delta-E=       -0.000000000030 Rises=F Damp=F
 DIIS: error= 5.95D-08 at cycle   5 NSaved=   5.
 NSaved= 5 IEnMin= 5 EnMin= -2083.78396402151     IErMin= 5 ErrMin= 5.95D-08
 ErrMax= 5.95D-08  0.00D+00 EMaxC= 1.00D-01 BMatC= 8.73D-13 BMatP= 1.28D-11
 IDIUse=1 WtCom= 1.00D+00 WtEn= 0.00D+00
 Coeff-Com: -0.194D-02 0.276D-01 0.293D-01 0.217D+00 0.728D+00
 Coeff:     -0.194D-02 0.276D-01 0.293D-01 0.217D+00 0.728D+00
 Gap=     0.317 Goal=   None    Shift=    0.000
 RMSDP=4.12D-09 MaxDP=2.14D-07 DE=-3.05D-11 OVMax= 2.22D-07

 SCF Done:  E(RB3LYP) =  -2083.78396402     A.U. after   11 cycles
            NFock= 11  Conv=0.41D-08     -V/T= 2.0015
 KE= 2.080661481090D+03 PE=-5.925104195818D+03 EE= 1.285156950093D+03
 Leave Link  502 at Wed Jun 24 01:18:29 2026, MaxMem=  1879048192 cpu:              11.9 elap:               2.3
 (Enter /CH/g16/l601.exe)
 Copying SCF densities to generalized density rwf, IOpCl= 0 IROHF=0.

 **********************************************************************

            Population analysis using the SCF Density.

 **********************************************************************

 Orbital symmetries:
       Occupied  (A) (A) (A) (A) (A) (A) (A) (A) (A) (A) (A) (A)
                 (A) (A) (A) (A) (A) (A) (A) (A) (A) (A) (A) (A)
                 (A) (A) (A) (A) (A) (A) (A) (A) (A) (A) (A) (A)
                 (A) (A) (A) (A) (A)
       Virtual   (A) (A) (A) (A) (A) (A) (A) (A) (A) (A) (A) (A)
                 (A) (A) (A) (A) (A) (A) (A) (A) (A) (A) (A) (A)
                 (A) (A) (A) (A) (A) (A) (A) (A) (A) (A) (A) (A)
                 (A) (A) (A) (A) (A) (A) (A) (A) (A) (A) (A) (A)
                 (A) (A) (A) (A) (A) (A) (A) (A) (A) (A) (A) (A)
                 (A) (A) (A) (A) (A) (A) (A) (A) (A) (A) (A) (A)
                 (A) (A) (A) (A) (A) (A) (A) (A) (A) (A) (A) (A)
                 (A) (A) (A) (A) (A) (A) (A) (A) (A) (A) (A) (A)
                 (A) (A) (A) (A) (A) (A) (A) (A) (A) (A) (A) (A)
                 (A) (A) (A) (A) (A) (A) (A) (A) (A) (A) (A) (A)
                 (A) (A) (A) (A) (A) (A) (A) (A) (A) (A) (A) (A)
                 (A) (A) (A) (A) (A) (A) (A) (A) (A) (A) (A) (A)
 The electronic state is 1-A.
 Alpha  occ. eigenvalues -- -101.33932-101.33918-101.33833-101.33651 -55.91773
 Alpha  occ. eigenvalues --   -9.27355  -9.27341  -9.27258  -9.27062  -7.03126
 Alpha  occ. eigenvalues --   -7.03112  -7.03028  -7.02835  -7.02820  -7.02819
 Alpha  occ. eigenvalues --   -7.02806  -7.02805  -7.02723  -7.02722  -7.02528
 Alpha  occ. eigenvalues --   -7.02527  -4.01851  -2.57164  -2.57161  -2.57159
 Alpha  occ. eigenvalues --   -0.65595  -0.63685  -0.63619  -0.63395  -0.28675
 Alpha  occ. eigenvalues --   -0.21852  -0.21802  -0.21664  -0.17528  -0.17512
 Alpha  occ. eigenvalues --   -0.16780  -0.16753  -0.16730  -0.14839  -0.14734
 Alpha  occ. eigenvalues --   -0.14693
 Alpha virt. eigenvalues --    0.17008   0.21446   0.21605   0.21703   0.24345
 Alpha virt. eigenvalues --    0.28723   0.28733   0.28742   0.33802   0.33814
 Alpha virt. eigenvalues --    0.37630   0.37653   0.37659   0.46052   0.48057
 Alpha virt. eigenvalues --    0.48075   0.48189   0.48302   0.48342   0.50553
 Alpha virt. eigenvalues --    0.50656   0.50690   0.52588   0.52666   0.52766
 Alpha virt. eigenvalues --    0.58489   0.58501   0.58541   0.59840   0.59861
 Alpha virt. eigenvalues --    0.67350   0.67549   0.67686   0.70857   0.71106
 Alpha virt. eigenvalues --    0.71302   0.74252   0.74429   0.74602   0.80132
 Alpha virt. eigenvalues --    0.80485   0.80746   0.81251   0.92674   0.92699
 Alpha virt. eigenvalues --    0.97352   0.97491   0.99194   0.99223   0.99280
 Alpha virt. eigenvalues --    1.05858   1.23127   1.23137   1.23305   1.23484
 Alpha virt. eigenvalues --    1.24375   1.24415   1.24461   1.24590   1.24777
 Alpha virt. eigenvalues --    1.25480   1.90311   1.90344   1.91231   1.91412
 Alpha virt. eigenvalues --    1.91511   1.94457   1.94495   1.94518   1.98767
 Alpha virt. eigenvalues --    1.98960   1.99090   2.03572   2.03604   2.03720
 Alpha virt. eigenvalues --    2.07102   2.07436   2.07653   2.09149   2.14773
 Alpha virt. eigenvalues --    2.14838   2.17085   2.17141   2.17232   2.22892
 Alpha virt. eigenvalues --    2.22984   2.23014   2.24898   2.24916   2.24930
 Alpha virt. eigenvalues --    2.24966   2.25016   2.25132   2.25229   2.26871
 Alpha virt. eigenvalues --    2.27476   2.27490   2.35745   2.35769   2.37235
 Alpha virt. eigenvalues --    2.37462   2.37628   2.37743   2.39762   2.39989
 Alpha virt. eigenvalues --    2.40074   2.41174   2.41298   2.41352   2.50903
 Alpha virt. eigenvalues --    2.51174   2.51242   2.56263   2.56533   2.60887
 Alpha virt. eigenvalues --    2.62754   2.63054   2.63219   2.66536   2.67215
 Alpha virt. eigenvalues --    2.68551   3.00654   3.01332   3.01581   7.92110
 Alpha virt. eigenvalues --    9.50133   9.50423   9.50597  10.84621  10.84649
 Alpha virt. eigenvalues --   10.89247  10.89333  10.89479  10.90601  10.90631
 Alpha virt. eigenvalues --   10.90683  11.10578  11.10950  11.11109  11.12252
 Alpha virt. eigenvalues --   24.93962  24.94110  24.94300  25.02440
          Condensed to atoms (all electrons):
              10         11         12         13         14
    10  Al  10.798147   0.394010   0.397895   0.398054   0.398255
    11  Cl   0.394010  17.090842  -0.024491  -0.025022  -0.025427
    12  Cl   0.397895  -0.024491  17.076069  -0.023779  -0.024679
    13  Cl   0.398054  -0.025022  -0.023779  17.076156  -0.024441
    14  Cl   0.398255  -0.025427  -0.024679  -0.024441  17.078033
 Mulliken charges:
               1
     1  Si   0.000000
     2  O    0.000000
     3  Si   0.000000
     4  H    0.000000
     5  H    0.000000
     6  H    0.000000
     7  H    0.000000
     8  H    0.000000
     9  H    0.000000
    10  Al   0.613638
    11  Cl  -0.409913
    12  Cl  -0.401016
    13  Cl  -0.400968
    14  Cl  -0.401741
 Sum of Mulliken charges =  -1.00000
 Mulliken charges with hydrogens summed into heavy atoms:
               1
     1  Si   0.000000
     2  O    0.000000
     3  Si   0.000000
    10  Al   0.613638
    11  Cl  -0.409913
    12  Cl  -0.401016
    13  Cl  -0.400968
    14  Cl  -0.401741
         Mulliken charges condensed to fragments:
      1      0.000000
      2     -1.000000
 Electronic spatial extent (au):  <R**2>=           1948.0589
 Charge=             -1.0000 electrons
 Dipole moment (field-independent basis, Debye):
    X=             -7.0375    Y=              0.3711    Z=              0.1031  Tot=              7.0480
 Quadrupole moment (field-independent basis, Debye-Ang):
   XX=            -86.0658   YY=            -75.7586   ZZ=            -75.7908
   XY=              0.5226   XZ=              0.0668   YZ=             -0.0151
 Traceless Quadrupole moment (field-independent basis, Debye-Ang):
   XX=             -6.8607   YY=              3.4465   ZZ=              3.4142
   XY=              0.5226   XZ=              0.0668   YZ=             -0.0151
 Octapole moment (field-independent basis, Debye-Ang**2):
  XXX=           -355.2205  YYY=              2.0321  ZZZ=             -7.5490  XYY=           -113.9917
  XXY=             13.1403  XXZ=              7.1079  XZZ=           -105.1505  YZZ=             10.8784
  YYZ=              1.4599  XYZ=             -0.0726
 Hexadecapole moment (field-independent basis, Debye-Ang**3):
 XXXX=          -1650.8375 YYYY=           -617.8176 ZZZZ=           -617.5964 XXXY=             59.6741
 XXXZ=             30.3246 YYYX=              2.7701 YYYZ=              1.3170 ZZZX=            -10.6673
 ZZZY=              4.1914 XXYY=           -375.3299 XXZZ=           -350.1240 YYZZ=           -203.0244
 XXYZ=             -3.5134 YYXZ=              2.3900 ZZXY=             13.2180
 N-N= 4.755018006144D+02 E-N=-5.925104200347D+03  KE= 2.080661481090D+03
 No NMR shielding tensors so no spin-rotation constants.
 Leave Link  601 at Wed Jun 24 01:18:29 2026, MaxMem=  1879048192 cpu:               0.4 elap:               0.1
 (Enter /CH/g16/l122.exe)
 CPIOFr:  IOpCl= 0 IRwI=-1 IRwCP=  731 ICalc=  4 LCPTot=      163064 Len1MO=      432554 IndFrg=     2325834
 Restoring MOs from calculation   1 to rwf.
 CPIOFr:  IOpCl= 0 IRwI=-2 IRwCP=  731 ICalc=  0 LCPTot=      163064 Len1MO=      432554 IndFrg=      595618
 Counterpoise corrected energy =   -2741.796623510495
                   BSSE energy =       0.001188476507
              sum of fragments =   -2741.784220116483
           complexation energy =      -8.53 kcal/mole (raw)
           complexation energy =      -7.78 kcal/mole (corrected)
 Leave Link  122 at Wed Jun 24 01:18:29 2026, MaxMem=  1879048192 cpu:               0.0 elap:               0.0
 (Enter /CH/g16/l9999.exe)
 Unable to Open any file for archive entry.
 1\1\GINC-NODE0-CHCLUSTER\SP\RB3LYP\def2TZVP\Al1Cl4H6O1Si2(1-)\LS\24-Ju
 n-2026\0\\#p B3LYP/def2TZVP EmpiricalDispersion=GD3BJ Counterpoise=2 i
 nt=ultrafine\\disiloxane_bsse\\-1,1\Si,0,-3.21061,-1.40139,0.02137\O,0
 ,-3.26079,0.24826,-0.17825\Si,0,-2.3341,1.61461,0.04655\H,0,-4.53971,-
 1.82426,0.55436\H,0,-2.15475,-1.7945,0.99363\H,0,-2.99989,-2.0898,-1.2
 8091\H,0,-3.25026,2.69577,0.51775\H,0,-1.30289,1.37142,1.08672\H,0,-1.
 71788,2.05577,-1.2307\Al,0,1.48257,-0.05977,0.00976\Cl,0,-0.04966,-0.7
 3877,-1.37691\Cl,0,0.94873,-0.65859,2.0178\Cl,0,1.64075,2.09285,-0.115
 85\Cl,0,3.3663,-0.96658,-0.54226\\Version=ES64L-G16RevC.02\State=1-A\H
 F=-2083.783964\RMSD=4.121e-09\Dipole=-1.8017189,0.032578,0.0198152\Qua
 drupole=-10.5764409,4.9669147,5.6095262,1.1663059,0.1042814,-0.001014\
 PG=C01 [X(Al1Cl4H6O1Si2)]\\@
 The archive entry for this job was punched.


 A MAN BEGINS CUTTING HIS WISDOM TEETH THE 1ST
 TIME HE BITES OFF MORE THAN HE CAN CHEW.
 Job cpu time:       0 days  0 hours  5 minutes 27.1 seconds.
 Elapsed time:       0 days  0 hours  0 minutes 44.2 seconds.
 File lengths (MBytes):  RWF=     87 Int=      0 D2E=      0 Chk=     25 Scr=      1
 Normal termination of Gaussian 16 at Wed Jun 24 01:18:29 2026.
