 Entering Gaussian System, Link 0=/CH/g16/g16
 Initial command:
 /CH/g16/l1.exe "/tmp/g16tz_disiloxane_cpxtz_2947290/Gau-2948230.inp" -scrdir="/tmp/g16tz_disiloxane_cpxtz_2947290/"
 Default is to use a total of  96 processors:
                               96 via shared-memory
                                1 via Linda
 Entering Link 1 = /CH/g16/l1.exe PID=   2948231.
  
 Copyright (c) 1988-2021, Gaussian, Inc.  All Rights Reserved.
  
 This is part of the Gaussian(R) 16 program.  It is based on
 the Gaussian(R) 09 system (copyright 2009, Gaussian, Inc.),
 the Gaussian(R) 03 system (copyright 2003, Gaussian, Inc.),
 the Gaussian(R) 98 system (copyright 1998, Gaussian, Inc.),
 the Gaussian(R) 94 system (copyright 1995, Gaussian, Inc.),
 the Gaussian 92(TM) system (copyright 1992, Gaussian, Inc.),
 the Gaussian 90(TM) system (copyright 1990, Gaussian, Inc.),
 the Gaussian 88(TM) system (copyright 1988, Gaussian, Inc.),
 the Gaussian 86(TM) system (copyright 1986, Carnegie Mellon
 University), and the Gaussian 82(TM) system (copyright 1983,
 Carnegie Mellon University). Gaussian is a federally registered
 trademark of Gaussian, Inc.
  
 This software contains proprietary and confidential information,
 including trade secrets, belonging to Gaussian, Inc.
  
 This software is provided under written license and may be
 used, copied, transmitted, or stored only in accord with that
 written license.
  
 The following legend is applicable only to US Government
 contracts under FAR:
  
                    RESTRICTED RIGHTS LEGEND
  
 Use, reproduction and disclosure by the US Government is
 subject to restrictions as set forth in subparagraphs (a)
 and (c) of the Commercial Computer Software - Restricted
 Rights clause in FAR 52.227-19.
  
 Gaussian, Inc.
 340 Quinnipiac St., Bldg. 40, Wallingford CT 06492
  
  
 ---------------------------------------------------------------
 Warning -- This program may not be used in any manner that
 competes with the business of Gaussian, Inc. or will provide
 assistance to any competitor of Gaussian, Inc.  The licensee
 of this program is prohibited from giving any competitor of
 Gaussian, Inc. access to this program.  By using this program,
 the user acknowledges that Gaussian, Inc. is engaged in the
 business of creating and licensing software in the field of
 computational chemistry and represents and warrants to the
 licensee that it is not a competitor of Gaussian, Inc. and that
 it will not use this program in any manner prohibited above.
 ---------------------------------------------------------------
  

 Cite this work as:
 Gaussian 16, Revision C.02,
 M. J. Frisch, G. W. Trucks, H. B. Schlegel, G. E. Scuseria, 
 M. A. Robb, J. R. Cheeseman, G. Scalmani, V. Barone, 
 G. A. Petersson, H. Nakatsuji, X. Li, M. Caricato, A. V. Marenich, 
 J. Bloino, B. G. Janesko, R. Gomperts, B. Mennucci, H. P. Hratchian, 
 J. V. Ortiz, A. F. Izmaylov, J. L. Sonnenberg, D. Williams-Young, 
 F. Ding, F. Lipparini, F. Egidi, J. Goings, B. Peng, A. Petrone, 
 T. Henderson, D. Ranasinghe, V. G. Zakrzewski, J. Gao, N. Rega, 
 G. Zheng, W. Liang, M. Hada, M. Ehara, K. Toyota, R. Fukuda, 
 J. Hasegawa, M. Ishida, T. Nakajima, Y. Honda, O. Kitao, H. Nakai, 
 T. Vreven, K. Throssell, J. A. Montgomery, Jr., J. E. Peralta, 
 F. Ogliaro, M. J. Bearpark, J. J. Heyd, E. N. Brothers, K. N. Kudin, 
 V. N. Staroverov, T. A. Keith, R. Kobayashi, J. Normand, 
 K. Raghavachari, A. P. Rendell, J. C. Burant, S. S. Iyengar, 
 J. Tomasi, M. Cossi, J. M. Millam, M. Klene, C. Adamo, R. Cammi, 
 J. W. Ochterski, R. L. Martin, K. Morokuma, O. Farkas, 
 J. B. Foresman, and D. J. Fox, Gaussian, Inc., Wallingford CT, 2019.
 
 ******************************************
 Gaussian 16:  ES64L-G16RevC.02  7-Dec-2021
                24-Jun-2026 
 ******************************************
 %chk=disiloxane_cpxtz.chk
 %nprocshared=8
 Will use up to    8 processors via shared memory.
 %mem=14GB
 ----------------------------------------------------------------------
 #p B3LYP/def2TZVP EmpiricalDispersion=GD3BJ SCRF=(SMD,Solvent=Tetrahyd
 rofuran) int=ultrafine
 ----------------------------------------------------------------------
 1/38=1,172=1/1;
 2/12=2,17=6,18=5,40=1/2;
 3/5=44,7=101,11=2,25=1,30=1,70=32201,72=20,74=-5,75=-5,124=41/1,2,3;
 4//1;
 5/5=2,38=5,53=20/2;
 6/7=2,8=2,9=2,10=2,28=1/1;
 99/5=1,9=1/99;
 Leave Link    1 at Wed Jun 24 01:17:43 2026, MaxMem=  1879048192 cpu:               0.9 elap:               0.0
 (Enter /CH/g16/l101.exe)
 ----------------
 disiloxane_cpxtz
 ----------------
 Symbolic Z-matrix:
 Charge = -1 Multiplicity = 1
 Si                   -3.21061  -1.40139   0.02137 
 O                    -3.26079   0.24826  -0.17825 
 Si                   -2.3341    1.61461   0.04655 
 H                    -4.53971  -1.82426   0.55436 
 H                    -2.15475  -1.7945    0.99363 
 H                    -2.99989  -2.0898   -1.28091 
 H                    -3.25026   2.69577   0.51775 
 H                    -1.30289   1.37142   1.08672 
 H                    -1.71788   2.05577  -1.2307 
 Al                    1.48257  -0.05977   0.00976 
 Cl                   -0.04966  -0.73877  -1.37691 
 Cl                    0.94873  -0.65859   2.0178 
 Cl                    1.64075   2.09285  -0.11585 
 Cl                    3.3663   -0.96658  -0.54226 
 
 ITRead=  0  0  0  0  0  0  0  0  0  0  0  0  0  0
 MicOpt= -1 -1 -1 -1 -1 -1 -1 -1 -1 -1 -1 -1 -1 -1
 NAtoms=     14 NQM=       14 NQMF=       0 NMMI=      0 NMMIF=      0
                NMic=       0 NMicF=      0.
                    Isotopes and Nuclear Properties:
 (Nuclear quadrupole moments (NQMom) in fm**2, nuclear magnetic moments (NMagM)
  in nuclear magnetons)

  Atom         1           2           3           4           5           6           7           8           9          10
 IAtWgt=          28          16          28           1           1           1           1           1           1          27
 AtmWgt=  27.9769284  15.9949146  27.9769284   1.0078250   1.0078250   1.0078250   1.0078250   1.0078250   1.0078250  26.9815413
 NucSpn=           0           0           0           1           1           1           1           1           1           5
 AtZEff=  -0.0000000  -0.0000000  -0.0000000  -0.0000000  -0.0000000  -0.0000000  -0.0000000  -0.0000000  -0.0000000  -0.0000000
 NQMom=    0.0000000   0.0000000   0.0000000   0.0000000   0.0000000   0.0000000   0.0000000   0.0000000   0.0000000  14.6600000
 NMagM=    0.0000000   0.0000000   0.0000000   2.7928460   2.7928460   2.7928460   2.7928460   2.7928460   2.7928460   3.6415040
 AtZNuc=  14.0000000   8.0000000  14.0000000   1.0000000   1.0000000   1.0000000   1.0000000   1.0000000   1.0000000  13.0000000

  Atom        11          12          13          14
 IAtWgt=          35          35          35          35
 AtmWgt=  34.9688527  34.9688527  34.9688527  34.9688527
 NucSpn=           3           3           3           3
 AtZEff=  -0.0000000  -0.0000000  -0.0000000  -0.0000000
 NQMom=   -8.1650000  -8.1650000  -8.1650000  -8.1650000
 NMagM=    0.8218740   0.8218740   0.8218740   0.8218740
 AtZNuc=  17.0000000  17.0000000  17.0000000  17.0000000
 Leave Link  101 at Wed Jun 24 01:17:43 2026, MaxMem=  1879048192 cpu:               0.1 elap:               0.1
 (Enter /CH/g16/l202.exe)
                          Input orientation:                          
 ---------------------------------------------------------------------
 Center     Atomic      Atomic             Coordinates (Angstroms)
 Number     Number       Type             X           Y           Z
 ---------------------------------------------------------------------
      1         14           0       -3.210610   -1.401390    0.021370
      2          8           0       -3.260790    0.248260   -0.178250
      3         14           0       -2.334100    1.614610    0.046550
      4          1           0       -4.539710   -1.824260    0.554360
      5          1           0       -2.154750   -1.794500    0.993630
      6          1           0       -2.999890   -2.089800   -1.280910
      7          1           0       -3.250260    2.695770    0.517750
      8          1           0       -1.302890    1.371420    1.086720
      9          1           0       -1.717880    2.055770   -1.230700
     10         13           0        1.482570   -0.059770    0.009760
     11         17           0       -0.049660   -0.738770   -1.376910
     12         17           0        0.948730   -0.658590    2.017800
     13         17           0        1.640750    2.092850   -0.115850
     14         17           0        3.366300   -0.966580   -0.542260
 ---------------------------------------------------------------------
                    Distance matrix (angstroms):
                    1          2          3          4          5
     1  Si   0.000000
     2  O    1.662441   0.000000
     3  Si   3.140885   1.666194   0.000000
     4  H    1.493119   2.543166   4.116845   0.000000
     5  H    1.488175   2.601825   3.542761   2.425258   0.000000
     6  H    1.488034   2.598163   3.991000   2.410347   2.444380
     7  H    4.127310   2.544569   1.493414   4.700499   4.646410
     8  H    3.530275   2.587472   1.484752   4.579605   3.279845
     9  H    3.968360   2.599099   1.485166   5.118964   4.468006
    10  Al   4.881190   4.757068   4.167958   6.299037   4.148179
    11  Cl   3.519355   3.566843   3.575374   5.006859   3.341471
    12  Cl   4.673071   4.833743   4.453115   5.798570   3.459885
    13  Cl   5.980321   5.237509   4.006809   7.347858   5.545111
    14  Cl   6.615322   6.747345   6.285205   8.027651   5.790199
                    6          7          8          9         10
     6  H    0.000000
     7  H    5.118549   0.000000
     8  H    4.523884   2.422783   0.000000
     9  H    4.339565   2.411403   2.451731   0.000000
    10  Al   5.087170   5.500067   3.311636   4.032013   0.000000
    11  Cl   3.246283   5.062573   3.477493   3.257881   2.175230
    12  Cl   5.340548   5.579731   3.171379   5.003130   2.162359
    13  Cl   6.355113   4.968595   3.260621   3.539020   2.162076
    14  Cl   6.506581   7.636445   5.470023   5.954615   2.162283
                   11         12         13         14
    11  Cl   0.000000
    12  Cl   3.539388   0.000000
    13  Cl   3.530698   3.549898   0.000000
    14  Cl   3.523822   3.534602   3.538285   0.000000
 Stoichiometry    AlCl4H6OSi2(1-)
 Framework group  C1[X(AlCl4H6OSi2)]
 Deg. of freedom    36
 Full point group                 C1      NOp   1
 Largest Abelian subgroup         C1      NOp   1
 Largest concise Abelian subgroup C1      NOp   1
                         Standard orientation:                         
 ---------------------------------------------------------------------
 Center     Atomic      Atomic             Coordinates (Angstroms)
 Number     Number       Type             X           Y           Z
 ---------------------------------------------------------------------
      1         14           0       -3.210610   -1.401386    0.021371
      2          8           0       -3.260788    0.248264   -0.178249
      3         14           0       -2.334096    1.614613    0.046551
      4          1           0       -4.539711   -1.824254    0.554361
      5          1           0       -2.154751   -1.794497    0.993631
      6          1           0       -2.999891   -2.089796   -1.280909
      7          1           0       -3.250255    2.695774    0.517751
      8          1           0       -1.302887    1.371422    1.086721
      9          1           0       -1.717876    2.055772   -1.230699
     10         13           0        1.482571   -0.059772    0.009761
     11         17           0       -0.049659   -0.738770   -1.376909
     12         17           0        0.948731   -0.658591    2.017801
     13         17           0        1.640754    2.092848   -0.115849
     14         17           0        3.366300   -0.966585   -0.542259
 ---------------------------------------------------------------------
 Rotational constants (GHZ):           0.8430722           0.3447839           0.3132508
 Leave Link  202 at Wed Jun 24 01:17:43 2026, MaxMem=  1879048192 cpu:               0.0 elap:               0.0
 (Enter /CH/g16/l301.exe)
 Standard basis: def2TZVP (5D, 7F)
 Ernie: Thresh=  0.10000D-02 Tol=  0.10000D-05 Strict=F.
 There are   366 symmetry adapted cartesian basis functions of A   symmetry.
 There are   326 symmetry adapted basis functions of A   symmetry.
   326 basis functions,   582 primitive gaussians,   366 cartesian basis functions
    62 alpha electrons       62 beta electrons
       nuclear repulsion energy      1020.4136065482 Hartrees.
 IExCor=  402 DFT=T Ex+Corr=B3LYP ExCW=0 ScaHFX=  0.200000
 ScaDFX=  0.800000  0.720000  1.000000  0.810000 ScalE2=  1.000000  1.000000
 IRadAn=      5 IRanWt=     -1 IRanGd=            0 ICorTp=0 IEmpDi=141
 NAtoms=   14 NActive=   14 NUniq=   14 SFac= 1.00D+00 NAtFMM=   60 NAOKFM=F Big=F
 Integral buffers will be    131072 words long.
 Raffenetti 2 integral format.
 Two-electron integral symmetry is turned on.
 R6Disp:  Grimme-D3(BJ) Dispersion energy=       -0.0359273824 Hartrees.
 Nuclear repulsion after empirical dispersion term =     1020.3776791658 Hartrees.
 ------------------------------------------------------------------------------
 Polarizable Continuum Model (PCM)
 =================================
 Model                : PCM.
 Atomic radii         : SMD-Coulomb.
 Polarization charges : Total charges.
 Charge compensation  : None.
 Solution method      : On-the-fly selection.
 Cavity type          : VdW (van der Waals Surface) (Alpha=1.000).
 Cavity algorithm     : GePol (No added spheres)
                        Default sphere list used, NSphG=   14.
                        Lebedev-Laikov grids with approx.  5.0 points / Ang**2.
                        Smoothing algorithm: York/Karplus (Gamma=1.0000).
                        Polarization charges: spherical gaussians, with
                                              point-specific exponents (IZeta= 3).
                        Self-potential: point-specific (ISelfS= 7).
                        Self-field    : sphere-specific E.n sum rule (ISelfD= 2).
 Solvent              : TetraHydroFuran, Eps=   7.425700 Eps(inf)=   1.974025
 ------------------------------------------------------------------------------
 Spheres list:
 ISph  on   Nord     Re0    Alpha      Xe            Ye            Ze
    1  Si      1    2.4700  1.000     -3.210610     -1.401386      0.021371
    2   O      2    2.2940  1.000     -3.260788      0.248264     -0.178249
    3  Si      3    2.4700  1.000     -2.334096      1.614613      0.046551
    4   H      4    1.2000  1.000     -4.539711     -1.824254      0.554361
    5   H      5    1.2000  1.000     -2.154751     -1.794497      0.993631
    6   H      6    1.2000  1.000     -2.999891     -2.089796     -1.280909
    7   H      7    1.2000  1.000     -3.250255      2.695774      0.517751
    8   H      8    1.2000  1.000     -1.302887      1.371422      1.086721
    9   H      9    1.2000  1.000     -1.717876      2.055772     -1.230699
   10  Al     10    2.3000  1.000      1.482571     -0.059772      0.009761
   11  Cl     11    2.3800  1.000     -0.049659     -0.738770     -1.376909
   12  Cl     12    2.3800  1.000      0.948731     -0.658591      2.017801
   13  Cl     13    2.3800  1.000      1.640754      2.092848     -0.115849
   14  Cl     14    2.3800  1.000      3.366300     -0.966585     -0.542259
 ------------------------------------------------------------------------------
 GePol: Number of generator spheres                  =      14
 GePol: Total number of spheres                      =      14
 GePol: Number of exposed spheres                    =      14 (100.00%)
 GePol: Number of points                             =    1934
 GePol: Average weight of points                     =       0.14
 GePol: Minimum weight of points                     =   0.81D-08
 GePol: Maximum weight of points                     =    0.19536
 GePol: Number of points with low weight             =      59
 GePol: Fraction of low-weight points (<1% of avg)   =       3.05%
 GePol: Cavity surface area                          =    275.075 Ang**2
 GePol: Cavity volume                                =    307.238 Ang**3
 ------------------------------------------------------------------------------
 Atomic radii for non-electrostatic terms: SMD-CDS.
 ------------------------------------------------------------------------------
 PCM non-electrostatic energy =        -0.0037019248 Hartrees.
 Nuclear repulsion after PCM non-electrostatic terms =     1020.3739772410 Hartrees.
 Leave Link  301 at Wed Jun 24 01:17:43 2026, MaxMem=  1879048192 cpu:               0.1 elap:               0.0
 (Enter /CH/g16/l302.exe)
 NPDir=0 NMtPBC=     1 NCelOv=     1 NCel=       1 NClECP=     1 NCelD=      1
         NCelK=      1 NCelE2=     1 NClLst=     1 CellRange=     0.0.
 One-electron integrals computed using PRISM.
 One-electron integral symmetry used in STVInt
   1 Symmetry operations used in ECPInt.
 ECPInt:  NShTT=    8001 NPrTT=   30427 LenC2=    7124 LenP2D=   18631.
 LDataN:  DoStor=T MaxTD1= 6 Len=  172
 NBasis=   326 RedAO= T EigKep=  1.93D-03  NBF=   326
 NBsUse=   326 1.00D-06 EigRej= -1.00D+00 NBFU=   326
 Precomputing XC quadrature grid using
 IXCGrd= 4 IRadAn=           5 IRanWt=          -1 IRanGd=           0 AccXCQ= 0.00D+00.
 Generated NRdTot=       0 NPtTot=           0 NUsed=           0 NTot=          32
 NSgBfM=   357   357   357   357   357 MxSgAt=    14 MxSgA2=    14.
 Leave Link  302 at Wed Jun 24 01:17:43 2026, MaxMem=  1879048192 cpu:               0.7 elap:               0.2
 (Enter /CH/g16/l303.exe)
 DipDrv:  MaxL=1.
 Leave Link  303 at Wed Jun 24 01:17:43 2026, MaxMem=  1879048192 cpu:               0.1 elap:               0.0
 (Enter /CH/g16/l401.exe)
 ExpMin= 5.79D-02 ExpMax= 6.95D+04 ExpMxC= 2.37D+03 IAcc=3 IRadAn=         5 AccDes= 0.00D+00
 Harris functional with IExCor=  402 and IRadAn=       5 diagonalized for initial guess.
 HarFok:  IExCor=  402 AccDes= 0.00D+00 IRadAn=         5 IDoV= 1 UseB2=F ITyADJ=14
 ICtDFT=  3500011 ScaDFX=  1.000000  1.000000  1.000000  1.000000
 FoFCou: FMM=F IPFlag=           0 FMFlag=      100000 FMFlg1=           0
         NFxFlg=           0 DoJE=T BraDBF=F KetDBF=T FulRan=T
         wScrn=  0.000000 ICntrl=       500 IOpCl=  0 I1Cent=   200000004 NGrid=           0
         NMat0=    1 NMatS0=      1 NMatT0=    0 NMatD0=    1 NMtDS0=    0 NMtDT0=    0
 Petite list used in FoFCou.
 Harris En= -2741.47727093969    
 JPrj=0 DoOrth=F DoCkMO=F.
 Leave Link  401 at Wed Jun 24 01:17:44 2026, MaxMem=  1879048192 cpu:               3.3 elap:               0.5
 (Enter /CH/g16/l502.exe)
 Integral symmetry usage will be decided dynamically.
 Closed shell SCF:
 Using DIIS extrapolation, IDIIS=  1040.
 NGot=  1879048192 LenX=  1878773782 LenY=  1878639385
 Requested convergence on RMS density matrix=1.00D-08 within 128 cycles.
 Requested convergence on MAX density matrix=1.00D-06.
 Requested convergence on             energy=1.00D-06.
 No special actions if energy rises.
 Fock matrices will be formed incrementally for  20 cycles.

 Cycle   1  Pass 1  IDiag  1:
 FoFJK:  IHMeth= 1 ICntrl=       0 DoSepK=F KAlg= 0 I1Cent=           0 FoldK=F
 IRaf= 840000000 NMat=       1 IRICut=       1 DoRegI=T DoRafI=F ISym2E= 0 IDoP0=0 IntGTp=1.
 FoFCou: FMM=F IPFlag=           0 FMFlag=      100000 FMFlg1=           0
         NFxFlg=           0 DoJE=F BraDBF=F KetDBF=F FulRan=T
         wScrn=  0.000000 ICntrl=         0 IOpCl=  0 I1Cent=           0 NGrid=           0
         NMat0=    1 NMatS0=      1 NMatT0=    0 NMatD0=    1 NMtDS0=    0 NMtDT0=    0
 Symmetry not used in FoFCou.
 Inv3:  Mode=1 IEnd=    11221068.
 Iteration    1 A*A^-1 deviation from unit magnitude is 3.44D-15 for    367.
 Iteration    1 A*A^-1 deviation from orthogonality  is 1.55D-15 for   1718    147.
 Iteration    1 A^-1*A deviation from unit magnitude is 3.44D-15 for    366.
 Iteration    1 A^-1*A deviation from orthogonality  is 1.82D-15 for   1477     49.
 E= -2741.73326421223    
 DIIS: error= 2.65D-02 at cycle   1 NSaved=   1.
 NSaved= 1 IEnMin= 1 EnMin= -2741.73326421223     IErMin= 1 ErrMin= 2.65D-02
 ErrMax= 2.65D-02  0.00D+00 EMaxC= 1.00D-01 BMatC= 2.58D-01 BMatP= 2.58D-01
 IDIUse=3 WtCom= 7.35D-01 WtEn= 2.65D-01
 Coeff-Com:  0.100D+01
 Coeff-En:   0.100D+01
 Coeff:      0.100D+01
 Gap=     0.289 Goal=   None    Shift=    0.000
 GapD=    0.289 DampG=1.000 DampE=0.500 DampFc=0.5000 IDamp=-1.
 Damping current iteration by 5.00D-01
 RMSDP=1.77D-03 MaxDP=1.07D-01              OVMax= 2.23D-01

 Cycle   2  Pass 1  IDiag  1:
 RMSU=  8.78D-04    CP:  9.94D-01
 E= -2741.75944533827     Delta-E=       -0.026181126040 Rises=F Damp=T
 DIIS: error= 1.21D-02 at cycle   2 NSaved=   2.
 NSaved= 2 IEnMin= 2 EnMin= -2741.75944533827     IErMin= 2 ErrMin= 1.21D-02
 ErrMax= 1.21D-02  0.00D+00 EMaxC= 1.00D-01 BMatC= 4.84D-02 BMatP= 2.58D-01
 IDIUse=3 WtCom= 8.79D-01 WtEn= 1.21D-01
 Coeff-Com:  0.137D+00 0.863D+00
 Coeff-En:   0.384D+00 0.616D+00
 Coeff:      0.167D+00 0.833D+00
 Gap=     0.337 Goal=   None    Shift=    0.000
 RMSDP=6.25D-04 MaxDP=2.87D-02 DE=-2.62D-02 OVMax= 1.55D-01

 Cycle   3  Pass 1  IDiag  1:
 RMSU=  5.18D-04    CP:  9.94D-01  6.02D-01
 E= -2741.83986424908     Delta-E=       -0.080418910808 Rises=F Damp=F
 DIIS: error= 1.21D-02 at cycle   3 NSaved=   3.
 NSaved= 3 IEnMin= 3 EnMin= -2741.83986424908     IErMin= 2 ErrMin= 1.21D-02
 ErrMax= 1.21D-02  0.00D+00 EMaxC= 1.00D-01 BMatC= 2.45D-02 BMatP= 4.84D-02
 IDIUse=3 WtCom= 8.79D-01 WtEn= 1.21D-01
 Coeff-Com: -0.114D+00 0.420D+00 0.694D+00
 Coeff-En:   0.000D+00 0.000D+00 0.100D+01
 Coeff:     -0.100D+00 0.369D+00 0.731D+00
 Gap=     0.286 Goal=   None    Shift=    0.000
 RMSDP=3.24D-04 MaxDP=2.02D-02 DE=-8.04D-02 OVMax= 3.56D-02

 Cycle   4  Pass 1  IDiag  1:
 RMSU=  1.59D-04    CP:  9.94D-01  8.00D-01  5.72D-01
 E= -2741.85626176751     Delta-E=       -0.016397518431 Rises=F Damp=F
 DIIS: error= 2.89D-03 at cycle   4 NSaved=   4.
 NSaved= 4 IEnMin= 4 EnMin= -2741.85626176751     IErMin= 4 ErrMin= 2.89D-03
 ErrMax= 2.89D-03  0.00D+00 EMaxC= 1.00D-01 BMatC= 2.00D-03 BMatP= 2.45D-02
 IDIUse=3 WtCom= 9.71D-01 WtEn= 2.89D-02
 Coeff-Com: -0.311D-01 0.111D+00 0.319D+00 0.602D+00
 Coeff-En:   0.000D+00 0.000D+00 0.279D-01 0.972D+00
 Coeff:     -0.302D-01 0.107D+00 0.310D+00 0.612D+00
 Gap=     0.279 Goal=   None    Shift=    0.000
 RMSDP=9.84D-05 MaxDP=5.46D-03 DE=-1.64D-02 OVMax= 7.24D-03

 Cycle   5  Pass 1  IDiag  1:
 RMSU=  3.79D-05    CP:  9.93D-01  7.69D-01  6.91D-01  6.20D-01
 E= -2741.85760394550     Delta-E=       -0.001342177992 Rises=F Damp=F
 DIIS: error= 2.92D-04 at cycle   5 NSaved=   5.
 NSaved= 5 IEnMin= 5 EnMin= -2741.85760394550     IErMin= 5 ErrMin= 2.92D-04
 ErrMax= 2.92D-04  0.00D+00 EMaxC= 1.00D-01 BMatC= 3.88D-05 BMatP= 2.00D-03
 IDIUse=3 WtCom= 9.97D-01 WtEn= 2.92D-03
 Coeff-Com: -0.714D-02 0.132D-01 0.585D-01 0.192D+00 0.744D+00
 Coeff-En:   0.000D+00 0.000D+00 0.000D+00 0.000D+00 0.100D+01
 Coeff:     -0.712D-02 0.131D-01 0.583D-01 0.191D+00 0.745D+00
 Gap=     0.280 Goal=   None    Shift=    0.000
 RMSDP=1.49D-05 MaxDP=1.06D-03 DE=-1.34D-03 OVMax= 8.19D-04

 Cycle   6  Pass 1  IDiag  1:
 RMSU=  5.97D-06    CP:  9.93D-01  7.70D-01  6.81D-01  6.85D-01  8.10D-01
 E= -2741.85762517492     Delta-E=       -0.000021229423 Rises=F Damp=F
 DIIS: error= 6.02D-05 at cycle   6 NSaved=   6.
 NSaved= 6 IEnMin= 6 EnMin= -2741.85762517492     IErMin= 6 ErrMin= 6.02D-05
 ErrMax= 6.02D-05  0.00D+00 EMaxC= 1.00D-01 BMatC= 1.57D-06 BMatP= 3.88D-05
 IDIUse=1 WtCom= 1.00D+00 WtEn= 0.00D+00
 Coeff-Com: -0.187D-02 0.232D-02 0.123D-01 0.506D-01 0.294D+00 0.642D+00
 Coeff:     -0.187D-02 0.232D-02 0.123D-01 0.506D-01 0.294D+00 0.642D+00
 Gap=     0.279 Goal=   None    Shift=    0.000
 RMSDP=3.89D-06 MaxDP=4.95D-04 DE=-2.12D-05 OVMax= 3.27D-04

 Cycle   7  Pass 1  IDiag  1:
 RMSU=  2.41D-06    CP:  9.93D-01  7.70D-01  6.83D-01  6.80D-01  8.41D-01
                    CP:  5.99D-01
 E= -2741.85762647291     Delta-E=       -0.000001297990 Rises=F Damp=F
 DIIS: error= 2.52D-05 at cycle   7 NSaved=   7.
 NSaved= 7 IEnMin= 7 EnMin= -2741.85762647291     IErMin= 7 ErrMin= 2.52D-05
 ErrMax= 2.52D-05  0.00D+00 EMaxC= 1.00D-01 BMatC= 1.90D-07 BMatP= 1.57D-06
 IDIUse=1 WtCom= 1.00D+00 WtEn= 0.00D+00
 Coeff-Com: -0.361D-03 0.192D-03 0.165D-02 0.101D-01 0.846D-01 0.321D+00
 Coeff-Com:  0.583D+00
 Coeff:     -0.361D-03 0.192D-03 0.165D-02 0.101D-01 0.846D-01 0.321D+00
 Coeff:      0.583D+00
 Gap=     0.279 Goal=   None    Shift=    0.000
 RMSDP=1.27D-06 MaxDP=1.63D-04 DE=-1.30D-06 OVMax= 1.01D-04

 Cycle   8  Pass 1  IDiag  1:
 RMSU=  4.73D-07    CP:  9.93D-01  7.70D-01  6.83D-01  6.79D-01  8.45D-01
                    CP:  7.20D-01  6.30D-01
 E= -2741.85762668433     Delta-E=       -0.000000211417 Rises=F Damp=F
 DIIS: error= 2.93D-06 at cycle   8 NSaved=   8.
 NSaved= 8 IEnMin= 8 EnMin= -2741.85762668433     IErMin= 8 ErrMin= 2.93D-06
 ErrMax= 2.93D-06  0.00D+00 EMaxC= 1.00D-01 BMatC= 4.61D-09 BMatP= 1.90D-07
 IDIUse=1 WtCom= 1.00D+00 WtEn= 0.00D+00
 Coeff-Com:  0.599D-04-0.119D-03-0.527D-03-0.148D-02-0.452D-02 0.356D-01
 Coeff-Com:  0.163D+00 0.808D+00
 Coeff:      0.599D-04-0.119D-03-0.527D-03-0.148D-02-0.452D-02 0.356D-01
 Coeff:      0.163D+00 0.808D+00
 Gap=     0.279 Goal=   None    Shift=    0.000
 RMSDP=2.05D-07 MaxDP=1.15D-05 DE=-2.11D-07 OVMax= 1.08D-05

 Cycle   9  Pass 1  IDiag  1:
 RMSU=  9.69D-08    CP:  9.93D-01  7.70D-01  6.83D-01  6.80D-01  8.45D-01
                    CP:  7.22D-01  6.80D-01  8.66D-01
 E= -2741.85762668819     Delta-E=       -0.000000003862 Rises=F Damp=F
 DIIS: error= 4.23D-07 at cycle   9 NSaved=   9.
 NSaved= 9 IEnMin= 9 EnMin= -2741.85762668819     IErMin= 9 ErrMin= 4.23D-07
 ErrMax= 4.23D-07  0.00D+00 EMaxC= 1.00D-01 BMatC= 1.49D-10 BMatP= 4.61D-09
 IDIUse=1 WtCom= 1.00D+00 WtEn= 0.00D+00
 Coeff-Com:  0.215D-04-0.335D-04-0.190D-03-0.576D-03-0.269D-02 0.523D-02
 Coeff-Com:  0.438D-01 0.266D+00 0.689D+00
 Coeff:      0.215D-04-0.335D-04-0.190D-03-0.576D-03-0.269D-02 0.523D-02
 Coeff:      0.438D-01 0.266D+00 0.689D+00
 Gap=     0.279 Goal=   None    Shift=    0.000
 RMSDP=3.99D-08 MaxDP=3.84D-06 DE=-3.86D-09 OVMax= 2.83D-06

 Cycle  10  Pass 1  IDiag  1:
 RMSU=  2.36D-08    CP:  9.93D-01  7.70D-01  6.83D-01  6.80D-01  8.45D-01
                    CP:  7.21D-01  6.83D-01  8.97D-01  7.31D-01
 E= -2741.85762668831     Delta-E=       -0.000000000120 Rises=F Damp=F
 DIIS: error= 1.90D-07 at cycle  10 NSaved=  10.
 NSaved=10 IEnMin=10 EnMin= -2741.85762668831     IErMin=10 ErrMin= 1.90D-07
 ErrMax= 1.90D-07  0.00D+00 EMaxC= 1.00D-01 BMatC= 1.96D-11 BMatP= 1.49D-10
 IDIUse=1 WtCom= 1.00D+00 WtEn= 0.00D+00
 Coeff-Com:  0.517D-05-0.657D-05-0.605D-04-0.183D-03-0.930D-03-0.218D-04
 Coeff-Com:  0.973D-02 0.669D-01 0.305D+00 0.619D+00
 Coeff:      0.517D-05-0.657D-05-0.605D-04-0.183D-03-0.930D-03-0.218D-04
 Coeff:      0.973D-02 0.669D-01 0.305D+00 0.619D+00
 Gap=     0.279 Goal=   None    Shift=    0.000
 RMSDP=1.13D-08 MaxDP=1.42D-06 DE=-1.20D-10 OVMax= 8.38D-07

 Cycle  11  Pass 1  IDiag  1:
 RMSU=  5.40D-09    CP:  9.93D-01  7.70D-01  6.83D-01  6.80D-01  8.45D-01
                    CP:  7.21D-01  6.83D-01  8.95D-01  7.79D-01  6.64D-01
 E= -2741.85762668834     Delta-E=       -0.000000000026 Rises=F Damp=F
 DIIS: error= 6.00D-08 at cycle  11 NSaved=  11.
 NSaved=11 IEnMin=11 EnMin= -2741.85762668834     IErMin=11 ErrMin= 6.00D-08
 ErrMax= 6.00D-08  0.00D+00 EMaxC= 1.00D-01 BMatC= 7.43D-13 BMatP= 1.96D-11
 IDIUse=1 WtCom= 1.00D+00 WtEn= 0.00D+00
 Coeff-Com: -0.107D-06 0.700D-06-0.931D-05-0.274D-04-0.154D-03-0.391D-03
 Coeff-Com:  0.193D-03 0.414D-02 0.471D-01 0.156D+00 0.793D+00
 Coeff:     -0.107D-06 0.700D-06-0.931D-05-0.274D-04-0.154D-03-0.391D-03
 Coeff:      0.193D-03 0.414D-02 0.471D-01 0.156D+00 0.793D+00
 Gap=     0.279 Goal=   None    Shift=    0.000
 RMSDP=2.25D-09 MaxDP=2.04D-07 DE=-2.64D-11 OVMax= 1.40D-07

 Error on total polarization charges =  0.01755
 SCF Done:  E(RB3LYP) =  -2741.85762669     A.U. after   11 cycles
            NFock= 11  Conv=0.23D-08     -V/T= 2.0018
 KE= 2.736796046904D+03 PE=-8.583595295191D+03 EE= 2.084567644358D+03
 SMD-CDS (non-electrostatic) energy       (kcal/mol) =      -2.32
 (included in total energy above)
 Leave Link  502 at Wed Jun 24 01:18:07 2026, MaxMem=  1879048192 cpu:             174.1 elap:              23.0
 (Enter /CH/g16/l601.exe)
 Copying SCF densities to generalized density rwf, IOpCl= 0 IROHF=0.

 **********************************************************************

            Population analysis using the SCF Density.

 **********************************************************************

 Orbital symmetries:
       Occupied  (A) (A) (A) (A) (A) (A) (A) (A) (A) (A) (A) (A)
                 (A) (A) (A) (A) (A) (A) (A) (A) (A) (A) (A) (A)
                 (A) (A) (A) (A) (A) (A) (A) (A) (A) (A) (A) (A)
                 (A) (A) (A) (A) (A) (A) (A) (A) (A) (A) (A) (A)
                 (A) (A) (A) (A) (A) (A) (A) (A) (A) (A) (A) (A)
                 (A) (A)
       Virtual   (A) (A) (A) (A) (A) (A) (A) (A) (A) (A) (A) (A)
                 (A) (A) (A) (A) (A) (A) (A) (A) (A) (A) (A) (A)
                 (A) (A) (A) (A) (A) (A) (A) (A) (A) (A) (A) (A)
                 (A) (A) (A) (A) (A) (A) (A) (A) (A) (A) (A) (A)
                 (A) (A) (A) (A) (A) (A) (A) (A) (A) (A) (A) (A)
                 (A) (A) (A) (A) (A) (A) (A) (A) (A) (A) (A) (A)
                 (A) (A) (A) (A) (A) (A) (A) (A) (A) (A) (A) (A)
                 (A) (A) (A) (A) (A) (A) (A) (A) (A) (A) (A) (A)
                 (A) (A) (A) (A) (A) (A) (A) (A) (A) (A) (A) (A)
                 (A) (A) (A) (A) (A) (A) (A) (A) (A) (A) (A) (A)
                 (A) (A) (A) (A) (A) (A) (A) (A) (A) (A) (A) (A)
                 (A) (A) (A) (A) (A) (A) (A) (A) (A) (A) (A) (A)
                 (A) (A) (A) (A) (A) (A) (A) (A) (A) (A) (A) (A)
                 (A) (A) (A) (A) (A) (A) (A) (A) (A) (A) (A) (A)
                 (A) (A) (A) (A) (A) (A) (A) (A) (A) (A) (A) (A)
                 (A) (A) (A) (A) (A) (A) (A) (A) (A) (A) (A) (A)
                 (A) (A) (A) (A) (A) (A) (A) (A) (A) (A) (A) (A)
                 (A) (A) (A) (A) (A) (A) (A) (A) (A) (A) (A) (A)
                 (A) (A) (A) (A) (A) (A) (A) (A) (A) (A) (A) (A)
                 (A) (A) (A) (A) (A) (A) (A) (A) (A) (A) (A) (A)
                 (A) (A) (A) (A) (A) (A) (A) (A) (A) (A) (A) (A)
                 (A) (A) (A) (A) (A) (A) (A) (A) (A) (A) (A) (A)
 The electronic state is 1-A.
 Alpha  occ. eigenvalues -- -101.46502-101.46306-101.46303-101.46299 -66.11374
 Alpha  occ. eigenvalues --  -66.11151 -56.04202 -19.11053  -9.39935  -9.39730
 Alpha  occ. eigenvalues --   -9.39724  -9.39719  -7.15697  -7.15500  -7.15492
 Alpha  occ. eigenvalues --   -7.15489  -7.15411  -7.15394  -7.15196  -7.15193
 Alpha  occ. eigenvalues --   -7.15190  -7.15189  -7.15187  -7.15182  -5.27214
 Alpha  occ. eigenvalues --   -5.27008  -4.14299  -3.63140  -3.62964  -3.62945
 Alpha  occ. eigenvalues --   -3.62936  -3.62758  -3.62714  -2.69617  -2.69606
 Alpha  occ. eigenvalues --   -2.69601  -0.97092  -0.78155  -0.76224  -0.76075
 Alpha  occ. eigenvalues --   -0.76051  -0.56702  -0.48932  -0.41385  -0.40962
 Alpha  occ. eigenvalues --   -0.39075  -0.38721  -0.34478  -0.34284  -0.34256
 Alpha  occ. eigenvalues --   -0.33144  -0.32712  -0.30463  -0.30054  -0.29845
 Alpha  occ. eigenvalues --   -0.29320  -0.29164  -0.28772  -0.28327  -0.27333
 Alpha  occ. eigenvalues --   -0.27315  -0.27251
 Alpha virt. eigenvalues --    0.00693   0.04419   0.05598   0.06644   0.06918
 Alpha virt. eigenvalues --    0.07512   0.08086   0.08322   0.09207   0.09773
 Alpha virt. eigenvalues --    0.10412   0.11021   0.13808   0.15673   0.16702
 Alpha virt. eigenvalues --    0.17109   0.17738   0.19349   0.20006   0.20874
 Alpha virt. eigenvalues --    0.20999   0.21367   0.23157   0.24237   0.24663
 Alpha virt. eigenvalues --    0.24929   0.25268   0.26486   0.26839   0.27297
 Alpha virt. eigenvalues --    0.28195   0.29826   0.32545   0.33827   0.34774
 Alpha virt. eigenvalues --    0.35501   0.35671   0.36035   0.36770   0.38277
 Alpha virt. eigenvalues --    0.38501   0.38817   0.39041   0.40021   0.40335
 Alpha virt. eigenvalues --    0.41469   0.42899   0.44120   0.45147   0.46047
 Alpha virt. eigenvalues --    0.47084   0.47385   0.47845   0.49323   0.51088
 Alpha virt. eigenvalues --    0.52027   0.54043   0.55472   0.55982   0.56887
 Alpha virt. eigenvalues --    0.57549   0.57692   0.59289   0.60489   0.61725
 Alpha virt. eigenvalues --    0.62488   0.63433   0.63919   0.64750   0.66279
 Alpha virt. eigenvalues --    0.67937   0.68401   0.68833   0.69122   0.71111
 Alpha virt. eigenvalues --    0.72435   0.74663   0.78971   0.80141   0.80936
 Alpha virt. eigenvalues --    0.81649   0.84695   0.86195   0.87853   0.88600
 Alpha virt. eigenvalues --    0.89793   0.91808   0.92169   0.94345   0.94564
 Alpha virt. eigenvalues --    0.97218   0.98319   1.01071   1.01531   1.02538
 Alpha virt. eigenvalues --    1.03142   1.03824   1.05365   1.07594   1.07757
 Alpha virt. eigenvalues --    1.08663   1.09596   1.10775   1.11629   1.11819
 Alpha virt. eigenvalues --    1.11982   1.12389   1.12478   1.12867   1.13803
 Alpha virt. eigenvalues --    1.14703   1.15142   1.15573   1.18971   1.21610
 Alpha virt. eigenvalues --    1.23967   1.26097   1.31462   1.36040   1.36807
 Alpha virt. eigenvalues --    1.37990   1.38893   1.41864   1.44859   1.54017
 Alpha virt. eigenvalues --    1.57850   1.71315   1.73527   1.78072   1.78768
 Alpha virt. eigenvalues --    1.79032   1.79860   1.80226   1.81219   1.82699
 Alpha virt. eigenvalues --    1.83052   1.84052   1.86152   1.86665   1.86791
 Alpha virt. eigenvalues --    1.88322   1.88663   1.90027   1.91685   1.91934
 Alpha virt. eigenvalues --    1.92624   1.93686   1.94883   1.95533   1.96348
 Alpha virt. eigenvalues --    1.97058   1.98496   2.00519   2.00930   2.02064
 Alpha virt. eigenvalues --    2.02788   2.04184   2.04900   2.05271   2.05610
 Alpha virt. eigenvalues --    2.06195   2.07023   2.10561   2.10656   2.10840
 Alpha virt. eigenvalues --    2.11270   2.12302   2.12484   2.12607   2.12655
 Alpha virt. eigenvalues --    2.12854   2.13015   2.13584   2.14176   2.14481
 Alpha virt. eigenvalues --    2.15510   2.15784   2.16812   2.24594   2.24825
 Alpha virt. eigenvalues --    2.25294   2.25491   2.26603   2.26834   2.27184
 Alpha virt. eigenvalues --    2.27995   2.28384   2.28822   2.30191   2.31059
 Alpha virt. eigenvalues --    2.32066   2.34004   2.35566   2.37979   2.39820
 Alpha virt. eigenvalues --    2.41334   2.42272   2.43507   2.44363   2.44863
 Alpha virt. eigenvalues --    2.46145   2.46758   2.49381   2.50342   2.50553
 Alpha virt. eigenvalues --    2.51004   2.52518   2.54467   2.55631   2.56367
 Alpha virt. eigenvalues --    2.70502   2.76408   2.83229   2.84886   2.87215
 Alpha virt. eigenvalues --    2.89514   2.89881   2.90217   2.90528   2.92891
 Alpha virt. eigenvalues --    2.97490   3.43290   3.48720   5.14862   5.15536
 Alpha virt. eigenvalues --    5.21046   5.21131   5.30249   5.31097   5.37240
 Alpha virt. eigenvalues --    6.16474   6.17465   6.20161   6.21489   6.42411
 Alpha virt. eigenvalues --    6.43110   6.48775   6.60470   6.68248   6.84171
 Alpha virt. eigenvalues --    7.04427   7.82144   9.38438   9.38896   9.45577
 Alpha virt. eigenvalues --   10.73590  10.75369  10.77595  10.77810  10.78536
 Alpha virt. eigenvalues --   10.80579  10.80967  10.86103  10.99671  11.00405
 Alpha virt. eigenvalues --   11.00472  11.01827  11.06499  11.10465  24.85272
 Alpha virt. eigenvalues --   24.86556  24.88956  25.13366  43.63989
          Condensed to atoms (all electrons):
               1          2          3          4          5          6
     1  Si  12.058829   0.411523  -0.055160   0.390718   0.402217   0.397817
     2  O    0.411523   7.711001   0.411659  -0.016893  -0.021444  -0.016676
     3  Si  -0.055160   0.411659  12.063851   0.001309  -0.003184  -0.000769
     4  H    0.390718  -0.016893   0.001309   0.764184  -0.026000  -0.029085
     5  H    0.402217  -0.021444  -0.003184  -0.026000   0.726453  -0.024131
     6  H    0.397817  -0.016676  -0.000769  -0.029085  -0.024131   0.742669
     7  H    0.001973  -0.017276   0.385095   0.000242  -0.000140  -0.000143
     8  H   -0.003487  -0.022137   0.403222  -0.000101   0.003005  -0.000191
     9  H   -0.000827  -0.017051   0.398853  -0.000144  -0.000130   0.000625
    10  Al  -0.001210  -0.001286   0.000498  -0.000031   0.000252   0.000341
    11  Cl   0.012848  -0.005638   0.008140   0.000413  -0.004163  -0.002499
    12  Cl  -0.002761   0.000096  -0.004636   0.000016   0.003975   0.000070
    13  Cl   0.000037   0.000070  -0.000468   0.000000  -0.000014   0.000002
    14  Cl  -0.000024  -0.000000  -0.000061  -0.000000  -0.000010  -0.000000
               7          8          9         10         11         12
     1  Si   0.001973  -0.003487  -0.000827  -0.001210   0.012848  -0.002761
     2  O   -0.017276  -0.022137  -0.017051  -0.001286  -0.005638   0.000096
     3  Si   0.385095   0.403222   0.398853   0.000498   0.008140  -0.004636
     4  H    0.000242  -0.000101  -0.000144  -0.000031   0.000413   0.000016
     5  H   -0.000140   0.003005  -0.000130   0.000252  -0.004163   0.003975
     6  H   -0.000143  -0.000191   0.000625   0.000341  -0.002499   0.000070
     7  H    0.775422  -0.024778  -0.030394  -0.000294   0.000353   0.000048
     8  H   -0.024778   0.722085  -0.023879   0.003124  -0.004027   0.003419
     9  H   -0.030394  -0.023879   0.734851   0.001781  -0.002121   0.000119
    10  Al  -0.000294   0.003124   0.001781  10.820258   0.385027   0.397671
    11  Cl   0.000353  -0.004027  -0.002121   0.385027  17.051931  -0.022242
    12  Cl   0.000048   0.003419   0.000119   0.397671  -0.022242  17.057219
    13  Cl   0.000053  -0.002736   0.000292   0.401592  -0.022542  -0.022322
    14  Cl   0.000000  -0.000022  -0.000008   0.409367  -0.024290  -0.024255
              13         14
     1  Si   0.000037  -0.000024
     2  O    0.000070  -0.000000
     3  Si  -0.000468  -0.000061
     4  H    0.000000  -0.000000
     5  H   -0.000014  -0.000010
     6  H    0.000002  -0.000000
     7  H    0.000053   0.000000
     8  H   -0.002736  -0.000022
     9  H    0.000292  -0.000008
    10  Al   0.401592   0.409367
    11  Cl  -0.022542  -0.024290
    12  Cl  -0.022322  -0.024255
    13  Cl  17.057214  -0.023849
    14  Cl  -0.023849  17.049374
 Mulliken charges:
               1
     1  Si   0.387507
     2  O   -0.415947
     3  Si   0.391652
     4  H   -0.084627
     5  H   -0.056685
     6  H   -0.068029
     7  H   -0.090160
     8  H   -0.053497
     9  H   -0.061967
    10  Al   0.582910
    11  Cl  -0.371189
    12  Cl  -0.386415
    13  Cl  -0.387329
    14  Cl  -0.386222
 Sum of Mulliken charges =  -1.00000
 Mulliken charges with hydrogens summed into heavy atoms:
               1
     1  Si   0.178166
     2  O   -0.415947
     3  Si   0.186027
    10  Al   0.582910
    11  Cl  -0.371189
    12  Cl  -0.386415
    13  Cl  -0.387329
    14  Cl  -0.386222
 Electronic spatial extent (au):  <R**2>=           3641.0509
 Charge=             -1.0000 electrons
 Dipole moment (field-independent basis, Debye):
    X=             -5.3888    Y=              0.1200    Z=              0.0999  Tot=              5.3911
 Quadrupole moment (field-independent basis, Debye-Ang):
   XX=           -130.0927   YY=           -111.3080   ZZ=           -111.5451
   XY=              1.6952   XZ=             -0.1394   YZ=              0.1119
 Traceless Quadrupole moment (field-independent basis, Debye-Ang):
   XX=            -12.4441   YY=              6.3406   ZZ=              6.1035
   XY=              1.6952   XZ=             -0.1394   YZ=              0.1119
 Octapole moment (field-independent basis, Debye-Ang**2):
  XXX=             -7.2624  YYY=            -12.5840  ZZZ=             -8.1451  XYY=             -7.4561
  XXY=              4.8692  XXZ=              5.0971  XZZ=             -2.6917  YZZ=              6.4690
  YYZ=              0.7618  XYZ=              0.5417
 Hexadecapole moment (field-independent basis, Debye-Ang**3):
 XXXX=          -3674.2680 YYYY=          -1152.9652 ZZZZ=           -701.0538 XXXY=             30.1296
 XXXZ=             43.1475 YYYX=             -8.9097 YYYZ=             -2.7580 ZZZX=             -9.3534
 ZZZY=              2.2090 XXYY=           -795.1488 XXZZ=           -672.8803 YYZZ=           -312.8030
 XXYZ=             -4.5308 YYXZ=              5.9783 ZZXY=              0.7105
 N-N= 1.020373977241D+03 E-N=-8.583595300023D+03  KE= 2.736796046904D+03
 No NMR shielding tensors so no spin-rotation constants.
 Leave Link  601 at Wed Jun 24 01:18:07 2026, MaxMem=  1879048192 cpu:               0.4 elap:               0.1
 (Enter /CH/g16/l9999.exe)
 Unable to Open any file for archive entry.
 1\1\GINC-NODE0-CHCLUSTER\SP\RB3LYP\def2TZVP\Al1Cl4H6O1Si2(1-)\LS\24-Ju
 n-2026\0\\#p B3LYP/def2TZVP EmpiricalDispersion=GD3BJ SCRF=(SMD,Solven
 t=Tetrahydrofuran) int=ultrafine\\disiloxane_cpxtz\\-1,1\Si,0,-3.21061
 ,-1.40139,0.02137\O,0,-3.26079,0.24826,-0.17825\Si,0,-2.3341,1.61461,0
 .04655\H,0,-4.53971,-1.82426,0.55436\H,0,-2.15475,-1.7945,0.99363\H,0,
 -2.99989,-2.0898,-1.28091\H,0,-3.25026,2.69577,0.51775\H,0,-1.30289,1.
 37142,1.08672\H,0,-1.71788,2.05577,-1.2307\Al,0,1.48257,-0.05977,0.009
 76\Cl,0,-0.04966,-0.73877,-1.37691\Cl,0,0.94873,-0.65859,2.0178\Cl,0,1
 .64075,2.09285,-0.11585\Cl,0,3.3663,-0.96658,-0.54226\\Version=ES64L-G
 16RevC.02\State=1-A\HF=-2741.8576267\RMSD=2.252e-09\Dipole=-2.1201317,
 0.0472094,0.0393053\Quadrupole=-9.2519209,4.7141041,4.5378167,1.260315
 6,-0.1036768,0.0832015\PG=C01 [X(Al1Cl4H6O1Si2)]\\@
 The archive entry for this job was punched.


 SUPPORT THE RIGHT TO ARM BEARS!
 (ADD A CLAWS TO THE BILL OF RIGHTS)
 Job cpu time:       0 days  0 hours  2 minutes 60.0 seconds.
 Elapsed time:       0 days  0 hours  0 minutes 24.0 seconds.
 File lengths (MBytes):  RWF=    123 Int=      0 D2E=      0 Chk=      8 Scr=      1
 Normal termination of Gaussian 16 at Wed Jun 24 01:18:07 2026.
