 Entering Gaussian System, Link 0=/CH/g16/g16
 Initial command:
 /CH/g16/l1.exe "/tmp/g16cx2_Me2O_2936425/Gau-2936433.inp" -scrdir="/tmp/g16cx2_Me2O_2936425/"
 Default is to use a total of  96 processors:
                               96 via shared-memory
                                1 via Linda
 Entering Link 1 = /CH/g16/l1.exe PID=   2936436.
  
 Copyright (c) 1988-2021, Gaussian, Inc.  All Rights Reserved.
  
 This is part of the Gaussian(R) 16 program.  It is based on
 the Gaussian(R) 09 system (copyright 2009, Gaussian, Inc.),
 the Gaussian(R) 03 system (copyright 2003, Gaussian, Inc.),
 the Gaussian(R) 98 system (copyright 1998, Gaussian, Inc.),
 the Gaussian(R) 94 system (copyright 1995, Gaussian, Inc.),
 the Gaussian 92(TM) system (copyright 1992, Gaussian, Inc.),
 the Gaussian 90(TM) system (copyright 1990, Gaussian, Inc.),
 the Gaussian 88(TM) system (copyright 1988, Gaussian, Inc.),
 the Gaussian 86(TM) system (copyright 1986, Carnegie Mellon
 University), and the Gaussian 82(TM) system (copyright 1983,
 Carnegie Mellon University). Gaussian is a federally registered
 trademark of Gaussian, Inc.
  
 This software contains proprietary and confidential information,
 including trade secrets, belonging to Gaussian, Inc.
  
 This software is provided under written license and may be
 used, copied, transmitted, or stored only in accord with that
 written license.
  
 The following legend is applicable only to US Government
 contracts under FAR:
  
                    RESTRICTED RIGHTS LEGEND
  
 Use, reproduction and disclosure by the US Government is
 subject to restrictions as set forth in subparagraphs (a)
 and (c) of the Commercial Computer Software - Restricted
 Rights clause in FAR 52.227-19.
  
 Gaussian, Inc.
 340 Quinnipiac St., Bldg. 40, Wallingford CT 06492
  
  
 ---------------------------------------------------------------
 Warning -- This program may not be used in any manner that
 competes with the business of Gaussian, Inc. or will provide
 assistance to any competitor of Gaussian, Inc.  The licensee
 of this program is prohibited from giving any competitor of
 Gaussian, Inc. access to this program.  By using this program,
 the user acknowledges that Gaussian, Inc. is engaged in the
 business of creating and licensing software in the field of
 computational chemistry and represents and warrants to the
 licensee that it is not a competitor of Gaussian, Inc. and that
 it will not use this program in any manner prohibited above.
 ---------------------------------------------------------------
  

 Cite this work as:
 Gaussian 16, Revision C.02,
 M. J. Frisch, G. W. Trucks, H. B. Schlegel, G. E. Scuseria, 
 M. A. Robb, J. R. Cheeseman, G. Scalmani, V. Barone, 
 G. A. Petersson, H. Nakatsuji, X. Li, M. Caricato, A. V. Marenich, 
 J. Bloino, B. G. Janesko, R. Gomperts, B. Mennucci, H. P. Hratchian, 
 J. V. Ortiz, A. F. Izmaylov, J. L. Sonnenberg, D. Williams-Young, 
 F. Ding, F. Lipparini, F. Egidi, J. Goings, B. Peng, A. Petrone, 
 T. Henderson, D. Ranasinghe, V. G. Zakrzewski, J. Gao, N. Rega, 
 G. Zheng, W. Liang, M. Hada, M. Ehara, K. Toyota, R. Fukuda, 
 J. Hasegawa, M. Ishida, T. Nakajima, Y. Honda, O. Kitao, H. Nakai, 
 T. Vreven, K. Throssell, J. A. Montgomery, Jr., J. E. Peralta, 
 F. Ogliaro, M. J. Bearpark, J. J. Heyd, E. N. Brothers, K. N. Kudin, 
 V. N. Staroverov, T. A. Keith, R. Kobayashi, J. Normand, 
 K. Raghavachari, A. P. Rendell, J. C. Burant, S. S. Iyengar, 
 J. Tomasi, M. Cossi, J. M. Millam, M. Klene, C. Adamo, R. Cammi, 
 J. W. Ochterski, R. L. Martin, K. Morokuma, O. Farkas, 
 J. B. Foresman, and D. J. Fox, Gaussian, Inc., Wallingford CT, 2019.
 
 ******************************************
 Gaussian 16:  ES64L-G16RevC.02  7-Dec-2021
                24-Jun-2026 
 ******************************************
 %chk=Me2O_cpx.chk
 %nprocshared=8
 Will use up to    8 processors via shared memory.
 %mem=14GB
 ----------------------------------------------------------------------
 #p B3LYP/def2SVP EmpiricalDispersion=GD3BJ opt=(maxcycles=200) scf=xqc
  SCRF=(SMD,Solvent=Tetrahydrofuran) int=ultrafine
 ----------------------------------------------------------------------
 1/6=200,18=20,19=15,26=6,38=1/1,3;
 2/9=110,12=2,17=6,18=5,40=1/2;
 3/5=43,7=101,11=2,25=1,30=1,70=32201,71=1,72=20,74=-5,75=-5,124=41/1,2,3;
 4//1;
 5/5=2,8=3,13=1,38=5,53=20/2,8;
 6/7=2,8=2,9=2,10=2,28=1/1;
 7//1,2,3,16;
 1/6=200,18=20,19=15,26=6/3(2);
 2/9=110/2;
 99//99;
 2/9=110/2;
 3/5=43,7=101,11=2,25=1,30=1,70=32205,71=1,72=20,74=-5,75=-5,124=41/1,2,3;
 4/5=5,16=3,69=1/1;
 5/5=2,8=3,13=1,38=5,53=20/2,8;
 7//1,2,3,16;
 1/6=200,18=20,19=15,26=6/3(-5);
 2/9=110/2;
 6/7=2,8=2,9=2,10=2,19=2,28=1/1;
 99/9=1/99;
 Leave Link    1 at Wed Jun 24 01:11:46 2026, MaxMem=  1879048192 cpu:               1.6 elap:               0.0
 (Enter /CH/g16/l101.exe)
 ---------------------
 Me2O+AlCl4(-) restart
 ---------------------
 Symbolic Z-matrix:
 Charge = -1 Multiplicity = 1
 O                    -3.84367   0.20663   0.03471 
 C                    -2.78612   1.13189  -0.01577 
 C                    -3.39215  -1.12258  -0.01193 
 H                    -2.09394   1.01861   0.83976 
 H                    -2.18875   1.03176  -0.94242 
 H                    -3.21699   2.14522   0.01428 
 H                    -4.27108  -1.78402   0.04893 
 H                    -2.70825  -1.36133   0.82675 
 H                    -2.84581  -1.34564  -0.94995 
 Al                    1.04659  -0.01666  -0.00034 
 Cl                    0.17397  -1.00439  -1.72084 
 Cl                    0.1606   -0.79267   1.82168 
 Cl                    0.69544   2.11684  -0.12887 
 Cl                    3.17813  -0.39019   0.0313 
 
 Add virtual bond connecting atoms Cl11       and H9         Dist= 5.92D+00.
 Add virtual bond connecting atoms Cl12       and H4         Dist= 5.77D+00.
 Add virtual bond connecting atoms Cl12       and H8         Dist= 5.84D+00.
 Add virtual bond connecting atoms Cl13       and H4         Dist= 5.95D+00.
 Add virtual bond connecting atoms Cl13       and H5         Dist= 6.02D+00.
 ITRead=  0  0  0  0  0  0  0  0  0  0  0  0  0  0
 MicOpt= -1 -1 -1 -1 -1 -1 -1 -1 -1 -1 -1 -1 -1 -1
 NAtoms=     14 NQM=       14 NQMF=       0 NMMI=      0 NMMIF=      0
                NMic=       0 NMicF=      0.
                    Isotopes and Nuclear Properties:
 (Nuclear quadrupole moments (NQMom) in fm**2, nuclear magnetic moments (NMagM)
  in nuclear magnetons)

  Atom         1           2           3           4           5           6           7           8           9          10
 IAtWgt=          16          12          12           1           1           1           1           1           1          27
 AtmWgt=  15.9949146  12.0000000  12.0000000   1.0078250   1.0078250   1.0078250   1.0078250   1.0078250   1.0078250  26.9815413
 NucSpn=           0           0           0           1           1           1           1           1           1           5
 AtZEff=  -0.0000000  -0.0000000  -0.0000000  -0.0000000  -0.0000000  -0.0000000  -0.0000000  -0.0000000  -0.0000000  -0.0000000
 NQMom=    0.0000000   0.0000000   0.0000000   0.0000000   0.0000000   0.0000000   0.0000000   0.0000000   0.0000000  14.6600000
 NMagM=    0.0000000   0.0000000   0.0000000   2.7928460   2.7928460   2.7928460   2.7928460   2.7928460   2.7928460   3.6415040
 AtZNuc=   8.0000000   6.0000000   6.0000000   1.0000000   1.0000000   1.0000000   1.0000000   1.0000000   1.0000000  13.0000000

  Atom        11          12          13          14
 IAtWgt=          35          35          35          35
 AtmWgt=  34.9688527  34.9688527  34.9688527  34.9688527
 NucSpn=           3           3           3           3
 AtZEff=  -0.0000000  -0.0000000  -0.0000000  -0.0000000
 NQMom=   -8.1650000  -8.1650000  -8.1650000  -8.1650000
 NMagM=    0.8218740   0.8218740   0.8218740   0.8218740
 AtZNuc=  17.0000000  17.0000000  17.0000000  17.0000000
 Leave Link  101 at Wed Jun 24 01:11:47 2026, MaxMem=  1879048192 cpu:               0.4 elap:               0.3
 (Enter /CH/g16/l103.exe)

 GradGradGradGradGradGradGradGradGradGradGradGradGradGradGradGradGradGrad
 Berny optimization.
 Initialization pass.
                           ----------------------------
                           !    Initial Parameters    !
                           ! (Angstroms and Degrees)  !
 --------------------------                            --------------------------
 ! Name  Definition              Value          Derivative Info.                !
 --------------------------------------------------------------------------------
 ! R1    R(1,2)                  1.4061         estimate D2E/DX2                !
 ! R2    R(1,3)                  1.4046         estimate D2E/DX2                !
 ! R3    R(2,4)                  1.1063         estimate D2E/DX2                !
 ! R4    R(2,5)                  1.107          estimate D2E/DX2                !
 ! R5    R(2,6)                  1.1015         estimate D2E/DX2                !
 ! R6    R(3,7)                  1.1017         estimate D2E/DX2                !
 ! R7    R(3,8)                  1.1082         estimate D2E/DX2                !
 ! R8    R(3,9)                  1.1082         estimate D2E/DX2                !
 ! R9    R(4,12)                 3.0542         estimate D2E/DX2                !
 ! R10   R(4,13)                 3.1504         estimate D2E/DX2                !
 ! R11   R(5,13)                 3.1871         estimate D2E/DX2                !
 ! R12   R(8,12)                 3.0893         estimate D2E/DX2                !
 ! R13   R(9,11)                 3.1353         estimate D2E/DX2                !
 ! R14   R(10,11)                2.1673         estimate D2E/DX2                !
 ! R15   R(10,12)                2.1695         estimate D2E/DX2                !
 ! R16   R(10,13)                2.166          estimate D2E/DX2                !
 ! R17   R(10,14)                2.1643         estimate D2E/DX2                !
 ! A1    A(2,1,3)              112.3187         estimate D2E/DX2                !
 ! A2    A(1,2,4)              112.0517         estimate D2E/DX2                !
 ! A3    A(1,2,5)              112.1099         estimate D2E/DX2                !
 ! A4    A(1,2,6)              108.0695         estimate D2E/DX2                !
 ! A5    A(4,2,5)              107.4837         estimate D2E/DX2                !
 ! A6    A(4,2,6)              108.5321         estimate D2E/DX2                !
 ! A7    A(5,2,6)              108.4881         estimate D2E/DX2                !
 ! A8    A(1,3,7)              108.0515         estimate D2E/DX2                !
 ! A9    A(1,3,8)              112.1562         estimate D2E/DX2                !
 ! A10   A(1,3,9)              112.152          estimate D2E/DX2                !
 ! A11   A(7,3,8)              108.7349         estimate D2E/DX2                !
 ! A12   A(7,3,9)              108.616          estimate D2E/DX2                !
 ! A13   A(8,3,9)              107.0359         estimate D2E/DX2                !
 ! A14   A(2,4,12)             140.4638         estimate D2E/DX2                !
 ! A15   A(2,4,13)             106.2907         estimate D2E/DX2                !
 ! A16   A(12,4,13)             69.6345         estimate D2E/DX2                !
 ! A17   A(2,5,13)             104.1143         estimate D2E/DX2                !
 ! A18   A(3,8,12)             141.0024         estimate D2E/DX2                !
 ! A19   A(3,9,11)             131.3799         estimate D2E/DX2                !
 ! A20   A(11,10,12)           109.8311         estimate D2E/DX2                !
 ! A21   A(11,10,13)           109.665          estimate D2E/DX2                !
 ! A22   A(11,10,14)           109.238          estimate D2E/DX2                !
 ! A23   A(12,10,13)           109.6298         estimate D2E/DX2                !
 ! A24   A(12,10,14)           109.1591         estimate D2E/DX2                !
 ! A25   A(13,10,14)           109.3012         estimate D2E/DX2                !
 ! A26   A(9,11,10)            104.0174         estimate D2E/DX2                !
 ! A27   A(4,12,8)              47.1645         estimate D2E/DX2                !
 ! A28   A(4,12,10)             79.5911         estimate D2E/DX2                !
 ! A29   A(8,12,10)            100.0559         estimate D2E/DX2                !
 ! A30   A(4,13,5)              32.7068         estimate D2E/DX2                !
 ! A31   A(4,13,10)             77.4042         estimate D2E/DX2                !
 ! A32   A(5,13,10)             80.0092         estimate D2E/DX2                !
 ! D1    D(3,1,2,4)            -61.0572         estimate D2E/DX2                !
 ! D2    D(3,1,2,5)             59.9029         estimate D2E/DX2                !
 ! D3    D(3,1,2,6)            179.4132         estimate D2E/DX2                !
 ! D4    D(2,1,3,7)            179.0532         estimate D2E/DX2                !
 ! D5    D(2,1,3,8)             59.2209         estimate D2E/DX2                !
 ! D6    D(2,1,3,9)            -61.2643         estimate D2E/DX2                !
 ! D7    D(1,2,4,12)            76.6593         estimate D2E/DX2                !
 ! D8    D(1,2,4,13)           154.2146         estimate D2E/DX2                !
 ! D9    D(5,2,4,12)           -46.9381         estimate D2E/DX2                !
 ! D10   D(5,2,4,13)            30.6173         estimate D2E/DX2                !
 ! D11   D(6,2,4,12)          -164.0827         estimate D2E/DX2                !
 ! D12   D(6,2,4,13)           -86.5274         estimate D2E/DX2                !
 ! D13   D(1,2,5,13)          -153.4467         estimate D2E/DX2                !
 ! D14   D(4,2,5,13)           -29.8849         estimate D2E/DX2                !
 ! D15   D(6,2,5,13)            87.2884         estimate D2E/DX2                !
 ! D16   D(1,3,8,12)           -72.0659         estimate D2E/DX2                !
 ! D17   D(7,3,8,12)           168.5012         estimate D2E/DX2                !
 ! D18   D(9,3,8,12)            51.3411         estimate D2E/DX2                !
 ! D19   D(1,3,9,11)            87.1567         estimate D2E/DX2                !
 ! D20   D(7,3,9,11)          -153.4912         estimate D2E/DX2                !
 ! D21   D(8,3,9,11)           -36.2529         estimate D2E/DX2                !
 ! D22   D(2,4,12,8)           -52.077          estimate D2E/DX2                !
 ! D23   D(2,4,12,10)           62.2792         estimate D2E/DX2                !
 ! D24   D(13,4,12,8)         -143.2408         estimate D2E/DX2                !
 ! D25   D(13,4,12,10)         -28.8846         estimate D2E/DX2                !
 ! D26   D(2,4,13,5)           -18.1962         estimate D2E/DX2                !
 ! D27   D(2,4,13,10)         -109.2834         estimate D2E/DX2                !
 ! D28   D(12,4,13,5)          120.2705         estimate D2E/DX2                !
 ! D29   D(12,4,13,10)          29.1833         estimate D2E/DX2                !
 ! D30   D(2,5,13,4)            17.9901         estimate D2E/DX2                !
 ! D31   D(2,5,13,10)          100.2044         estimate D2E/DX2                !
 ! D32   D(3,8,12,4)            49.7373         estimate D2E/DX2                !
 ! D33   D(3,8,12,10)          -15.7662         estimate D2E/DX2                !
 ! D34   D(3,9,11,10)           -4.9476         estimate D2E/DX2                !
 ! D35   D(12,10,11,9)          37.8237         estimate D2E/DX2                !
 ! D36   D(13,10,11,9)         -82.7147         estimate D2E/DX2                !
 ! D37   D(14,10,11,9)         157.518          estimate D2E/DX2                !
 ! D38   D(11,10,12,4)         -76.189          estimate D2E/DX2                !
 ! D39   D(11,10,12,8)         -33.4651         estimate D2E/DX2                !
 ! D40   D(13,10,12,4)          44.3707         estimate D2E/DX2                !
 ! D41   D(13,10,12,8)          87.0946         estimate D2E/DX2                !
 ! D42   D(14,10,12,4)         164.0686         estimate D2E/DX2                !
 ! D43   D(14,10,12,8)        -153.2074         estimate D2E/DX2                !
 ! D44   D(11,10,13,4)          77.5646         estimate D2E/DX2                !
 ! D45   D(11,10,13,5)          44.2962         estimate D2E/DX2                !
 ! D46   D(12,10,13,4)         -43.0959         estimate D2E/DX2                !
 ! D47   D(12,10,13,5)         -76.3643         estimate D2E/DX2                !
 ! D48   D(14,10,13,4)        -162.7068         estimate D2E/DX2                !
 ! D49   D(14,10,13,5)         164.0248         estimate D2E/DX2                !
 --------------------------------------------------------------------------------
 Trust Radius=3.00D-01 FncErr=5.00D-06 GrdErr=5.00D-06 EigMax=2.50D+02 EigMin=1.00D-04
 Number of steps in this run=    100 maximum allowed number of steps=    100.
 GradGradGradGradGradGradGradGradGradGradGradGradGradGradGradGradGradGrad

 Leave Link  103 at Wed Jun 24 01:11:47 2026, MaxMem=  1879048192 cpu:               0.0 elap:               0.0
 (Enter /CH/g16/l202.exe)
                          Input orientation:                          
 ---------------------------------------------------------------------
 Center     Atomic      Atomic             Coordinates (Angstroms)
 Number     Number       Type             X           Y           Z
 ---------------------------------------------------------------------
      1          8           0       -3.843670    0.206630    0.034710
      2          6           0       -2.786120    1.131890   -0.015770
      3          6           0       -3.392150   -1.122580   -0.011930
      4          1           0       -2.093940    1.018610    0.839760
      5          1           0       -2.188750    1.031760   -0.942420
      6          1           0       -3.216990    2.145220    0.014280
      7          1           0       -4.271080   -1.784020    0.048930
      8          1           0       -2.708250   -1.361330    0.826750
      9          1           0       -2.845810   -1.345640   -0.949950
     10         13           0        1.046590   -0.016660   -0.000340
     11         17           0        0.173970   -1.004390   -1.720840
     12         17           0        0.160600   -0.792670    1.821680
     13         17           0        0.695440    2.116840   -0.128870
     14         17           0        3.178130   -0.390190    0.031300
 ---------------------------------------------------------------------
                    Distance matrix (angstroms):
                    1          2          3          4          5
     1  O    0.000000
     2  C    1.406082   0.000000
     3  C    1.404580   2.334507   0.000000
     4  H    2.090209   1.106290   2.644886   0.000000
     5  H    2.091503   1.107049   2.637264   1.784749   0.000000
     6  H    2.037468   1.101540   3.272596   1.792180   1.792302
     7  H    2.036067   3.272892   1.101692   3.635944   3.639710
     8  H    2.091651   2.632879   1.108199   2.457979   3.021047
     9  H    2.091608   2.648473   1.108208   3.059093   2.466539
    10  Al   4.895481   4.001134   4.574451   3.411815   3.529040
    11  Cl   4.548621   4.029031   3.956205   3.973993   3.214699
    12  Cl   4.497337   3.970304   4.011608   3.054153   4.060571
    13  Cl   4.927391   3.619969   5.216887   3.150396   3.187133
    14  Cl   7.047119   6.155585   6.611115   5.516616   5.636796
                    6          7          8          9         10
     6  H    0.000000
     7  H    4.068321   0.000000
     8  H    3.635219   1.796137   0.000000
     9  H    3.640552   1.794807   1.782086   0.000000
    10  Al   4.780382   5.603892   4.073210   4.221223   0.000000
    11  Cl   4.942600   4.847513   3.863265   3.135250   2.167302
    12  Cl   4.827630   4.874957   3.089265   4.126283   2.169545
    13  Cl   3.915151   6.317804   4.959434   5.020298   2.166021
    14  Cl   6.879401   7.578509   6.018748   6.177669   2.164252
                   11         12         13         14
    11  Cl   0.000000
    12  Cl   3.548866   0.000000
    13  Cl   3.542369   3.543437   0.000000
    14  Cl   3.531602   3.531705   3.531940   0.000000
 Stoichiometry    C2H6AlCl4O(1-)
 Framework group  C1[X(C2H6AlCl4O)]
 Deg. of freedom    36
 Full point group                 C1      NOp   1
 Largest Abelian subgroup         C1      NOp   1
 Largest concise Abelian subgroup C1      NOp   1
                         Standard orientation:                         
 ---------------------------------------------------------------------
 Center     Atomic      Atomic             Coordinates (Angstroms)
 Number     Number       Type             X           Y           Z
 ---------------------------------------------------------------------
      1          8           0       -3.843672    0.206629    0.034710
      2          6           0       -2.786123    1.131890   -0.015770
      3          6           0       -3.392152   -1.122581   -0.011930
      4          1           0       -2.093943    1.018610    0.839760
      5          1           0       -2.188753    1.031760   -0.942420
      6          1           0       -3.216993    2.145219    0.014280
      7          1           0       -4.271082   -1.784021    0.048930
      8          1           0       -2.708252   -1.361330    0.826750
      9          1           0       -2.845812   -1.345640   -0.949950
     10         13           0        1.046588   -0.016659   -0.000340
     11         17           0        0.173968   -1.004389   -1.720840
     12         17           0        0.160598   -0.792669    1.821680
     13         17           0        0.695437    2.116841   -0.128870
     14         17           0        3.178128   -0.390189    0.031300
 ---------------------------------------------------------------------
 Rotational constants (GHZ):           1.0366089           0.4417999           0.4266406
 Leave Link  202 at Wed Jun 24 01:11:47 2026, MaxMem=  1879048192 cpu:               0.0 elap:               0.0
 (Enter /CH/g16/l301.exe)
 Standard basis: def2SVP (5D, 7F)
 Ernie: Thresh=  0.10000D-02 Tol=  0.10000D-05 Strict=F.
 There are   170 symmetry adapted cartesian basis functions of A   symmetry.
 There are   162 symmetry adapted basis functions of A   symmetry.
   162 basis functions,   302 primitive gaussians,   170 cartesian basis functions
    54 alpha electrons       54 beta electrons
       nuclear repulsion energy       802.0636852122 Hartrees.
 IExCor=  402 DFT=T Ex+Corr=B3LYP ExCW=0 ScaHFX=  0.200000
 ScaDFX=  0.800000  0.720000  1.000000  0.810000 ScalE2=  1.000000  1.000000
 IRadAn=      5 IRanWt=     -1 IRanGd=            0 ICorTp=0 IEmpDi=141
 NAtoms=   14 NActive=   14 NUniq=   14 SFac= 1.00D+00 NAtFMM=   60 NAOKFM=F Big=F
 Integral buffers will be    131072 words long.
 Raffenetti 2 integral format.
 Two-electron integral symmetry is turned on.
 R6Disp:  Grimme-D3(BJ) Dispersion energy=       -0.0285397584 Hartrees.
 Nuclear repulsion after empirical dispersion term =      802.0351454538 Hartrees.
 ------------------------------------------------------------------------------
 Polarizable Continuum Model (PCM)
 =================================
 Model                : PCM.
 Atomic radii         : SMD-Coulomb.
 Polarization charges : Total charges.
 Charge compensation  : None.
 Solution method      : On-the-fly selection.
 Cavity type          : VdW (van der Waals Surface) (Alpha=1.000).
 Cavity algorithm     : GePol (No added spheres)
                        Default sphere list used, NSphG=   14.
                        Lebedev-Laikov grids with approx.  5.0 points / Ang**2.
                        Smoothing algorithm: York/Karplus (Gamma=1.0000).
                        Polarization charges: spherical gaussians, with
                                              point-specific exponents (IZeta= 3).
                        Self-potential: point-specific (ISelfS= 7).
                        Self-field    : sphere-specific E.n sum rule (ISelfD= 2).
 1st derivatives      : Analytical E(r).r(x)/FMM algorithm (CHGder, D1EAlg=3).
                        Cavity 1st derivative terms included.
 Solvent              : TetraHydroFuran, Eps=   7.425700 Eps(inf)=   1.974025
 ------------------------------------------------------------------------------
 Spheres list:
 ISph  on   Nord     Re0    Alpha      Xe            Ye            Ze
    1   O      1    2.2940  1.000     -3.843672      0.206629      0.034710
    2   C      2    1.8500  1.000     -2.786123      1.131890     -0.015770
    3   C      3    1.8500  1.000     -3.392152     -1.122581     -0.011930
    4   H      4    1.2000  1.000     -2.093943      1.018610      0.839760
    5   H      5    1.2000  1.000     -2.188753      1.031760     -0.942420
    6   H      6    1.2000  1.000     -3.216993      2.145219      0.014280
    7   H      7    1.2000  1.000     -4.271082     -1.784021      0.048930
    8   H      8    1.2000  1.000     -2.708252     -1.361330      0.826750
    9   H      9    1.2000  1.000     -2.845812     -1.345640     -0.949950
   10  Al     10    2.3000  1.000      1.046588     -0.016659     -0.000340
   11  Cl     11    2.3800  1.000      0.173968     -1.004389     -1.720840
   12  Cl     12    2.3800  1.000      0.160598     -0.792669      1.821680
   13  Cl     13    2.3800  1.000      0.695437      2.116841     -0.128870
   14  Cl     14    2.3800  1.000      3.178128     -0.390189      0.031300
 ------------------------------------------------------------------------------
 GePol: Number of generator spheres                  =      14
 GePol: Total number of spheres                      =      14
 GePol: Number of exposed spheres                    =      14 (100.00%)
 GePol: Number of points                             =    1861
 GePol: Average weight of points                     =       0.14
 GePol: Minimum weight of points                     =   0.23D-09
 GePol: Maximum weight of points                     =    0.18138
 GePol: Number of points with low weight             =      74
 GePol: Fraction of low-weight points (<1% of avg)   =       3.98%
 GePol: Cavity surface area                          =    255.406 Ang**2
 GePol: Cavity volume                                =    268.681 Ang**3
 ------------------------------------------------------------------------------
 Atomic radii for non-electrostatic terms: SMD-CDS.
 ------------------------------------------------------------------------------
 PCM non-electrostatic energy =        -0.0030988736 Hartrees.
 Nuclear repulsion after PCM non-electrostatic terms =      802.0320465802 Hartrees.
 Leave Link  301 at Wed Jun 24 01:11:47 2026, MaxMem=  1879048192 cpu:               0.0 elap:               0.0
 (Enter /CH/g16/l302.exe)
 NPDir=0 NMtPBC=     1 NCelOv=     1 NCel=       1 NClECP=     1 NCelD=      1
         NCelK=      1 NCelE2=     1 NClLst=     1 CellRange=     0.0.
 One-electron integrals computed using PRISM.
 One-electron integral symmetry used in STVInt
   1 Symmetry operations used in ECPInt.
 ECPInt:  NShTT=    2926 NPrTT=   12418 LenC2=    2743 LenP2D=    8096.
 LDataN:  DoStor=T MaxTD1= 4 Len=   56
 NBasis=   162 RedAO= T EigKep=  8.47D-03  NBF=   162
 NBsUse=   162 1.00D-06 EigRej= -1.00D+00 NBFU=   162
 Precomputing XC quadrature grid using
 IXCGrd= 4 IRadAn=           5 IRanWt=          -1 IRanGd=           0 AccXCQ= 0.00D+00.
 Generated NRdTot=       0 NPtTot=           0 NUsed=           0 NTot=          32
 NSgBfM=   168   168   168   168   168 MxSgAt=    14 MxSgA2=    14.
 Leave Link  302 at Wed Jun 24 01:11:47 2026, MaxMem=  1879048192 cpu:               0.4 elap:               0.1
 (Enter /CH/g16/l303.exe)
 DipDrv:  MaxL=1.
 Leave Link  303 at Wed Jun 24 01:11:47 2026, MaxMem=  1879048192 cpu:               0.0 elap:               0.0
 (Enter /CH/g16/l401.exe)
 ExpMin= 5.44D-02 ExpMax= 1.04D+04 ExpMxC= 1.57D+03 IAcc=3 IRadAn=         5 AccDes= 0.00D+00
 Harris functional with IExCor=  402 and IRadAn=       5 diagonalized for initial guess.
 HarFok:  IExCor=  402 AccDes= 0.00D+00 IRadAn=         5 IDoV= 1 UseB2=F ITyADJ=14
 ICtDFT=  3500011 ScaDFX=  1.000000  1.000000  1.000000  1.000000
 FoFCou: FMM=F IPFlag=           0 FMFlag=      100000 FMFlg1=           0
         NFxFlg=           0 DoJE=T BraDBF=F KetDBF=T FulRan=T
         wScrn=  0.000000 ICntrl=       500 IOpCl=  0 I1Cent=   200000004 NGrid=           0
         NMat0=    1 NMatS0=      1 NMatT0=    0 NMatD0=    1 NMtDS0=    0 NMtDT0=    0
 Petite list used in FoFCou.
 Harris En= -2237.72071074267    
 JPrj=0 DoOrth=F DoCkMO=F.
 Leave Link  401 at Wed Jun 24 01:11:47 2026, MaxMem=  1879048192 cpu:               1.7 elap:               0.2
 (Enter /CH/g16/l502.exe)
 Integral symmetry usage will be decided dynamically.
 Closed shell SCF:
 Using DIIS extrapolation, IDIIS=  1040.
 NGot=  1879048192 LenX=  1878986852 LenY=  1878957511
 Requested convergence on RMS density matrix=1.00D-08 within  32 cycles.
 Requested convergence on MAX density matrix=1.00D-06.
 Requested convergence on             energy=1.00D-06.
 No special actions if energy rises.
 Fock matrices will be formed incrementally for  20 cycles.

 Cycle   1  Pass 1  IDiag  1:
 FoFJK:  IHMeth= 1 ICntrl=       0 DoSepK=F KAlg= 0 I1Cent=           0 FoldK=F
 IRaf= 890000000 NMat=       1 IRICut=       1 DoRegI=T DoRafI=F ISym2E= 0 IDoP0=0 IntGTp=1.
 FoFCou: FMM=F IPFlag=           0 FMFlag=      100000 FMFlg1=           0
         NFxFlg=           0 DoJE=F BraDBF=F KetDBF=F FulRan=T
         wScrn=  0.000000 ICntrl=         0 IOpCl=  0 I1Cent=           0 NGrid=           0
         NMat0=    1 NMatS0=      1 NMatT0=    0 NMatD0=    1 NMtDS0=    0 NMtDT0=    0
 Symmetry not used in FoFCou.
 Inv3:  Mode=1 IEnd=    10389963.
 Iteration    1 A*A^-1 deviation from unit magnitude is 3.77D-15 for     55.
 Iteration    1 A*A^-1 deviation from orthogonality  is 2.07D-15 for    631     95.
 Iteration    1 A^-1*A deviation from unit magnitude is 3.77D-15 for     55.
 Iteration    1 A^-1*A deviation from orthogonality  is 1.88D-15 for    307      2.
 E= -2237.94865699339    
 DIIS: error= 2.38D-02 at cycle   1 NSaved=   1.
 NSaved= 1 IEnMin= 1 EnMin= -2237.94865699339     IErMin= 1 ErrMin= 2.38D-02
 ErrMax= 2.38D-02  0.00D+00 EMaxC= 1.00D-01 BMatC= 9.91D-02 BMatP= 9.91D-02
 IDIUse=3 WtCom= 7.62D-01 WtEn= 2.38D-01
 Coeff-Com:  0.100D+01
 Coeff-En:   0.100D+01
 Coeff:      0.100D+01
 Gap=     0.406 Goal=   None    Shift=    0.000
 GapD=    0.406 DampG=2.000 DampE=0.500 DampFc=1.0000 IDamp=-1.
 RMSDP=4.00D-03 MaxDP=1.04D-01              OVMax= 1.23D-01

 Cycle   2  Pass 1  IDiag  1:
 RMSU=  3.98D-03    CP:  9.90D-01
 E= -2237.94931300598     Delta-E=       -0.000656012584 Rises=F Damp=F
 DIIS: error= 2.78D-02 at cycle   2 NSaved=   2.
 NSaved= 2 IEnMin= 2 EnMin= -2237.94931300598     IErMin= 1 ErrMin= 2.38D-02
 ErrMax= 2.78D-02  0.00D+00 EMaxC= 1.00D-01 BMatC= 9.47D-02 BMatP= 9.91D-02
 IDIUse=3 WtCom= 7.22D-01 WtEn= 2.78D-01
 Coeff-Com:  0.494D+00 0.506D+00
 Coeff-En:   0.498D+00 0.502D+00
 Coeff:      0.495D+00 0.505D+00
 Gap=     0.318 Goal=   None    Shift=    0.000
 RMSDP=2.29D-03 MaxDP=6.11D-02 DE=-6.56D-04 OVMax= 7.47D-02

 Cycle   3  Pass 1  IDiag  1:
 RMSU=  7.20D-04    CP:  9.95D-01  4.55D-01
 E= -2238.04105283001     Delta-E=       -0.091739824034 Rises=F Damp=F
 DIIS: error= 5.15D-03 at cycle   3 NSaved=   3.
 NSaved= 3 IEnMin= 3 EnMin= -2238.04105283001     IErMin= 3 ErrMin= 5.15D-03
 ErrMax= 5.15D-03  0.00D+00 EMaxC= 1.00D-01 BMatC= 3.04D-03 BMatP= 9.47D-02
 IDIUse=3 WtCom= 9.49D-01 WtEn= 5.15D-02
 Coeff-Com:  0.111D+00 0.185D+00 0.703D+00
 Coeff-En:   0.000D+00 0.000D+00 0.100D+01
 Coeff:      0.106D+00 0.176D+00 0.719D+00
 Gap=     0.296 Goal=   None    Shift=    0.000
 RMSDP=3.71D-04 MaxDP=1.57D-02 DE=-9.17D-02 OVMax= 1.54D-02

 Cycle   4  Pass 1  IDiag  1:
 RMSU=  2.29D-04    CP:  9.95D-01  4.96D-01  6.65D-01
 E= -2238.04271034825     Delta-E=       -0.001657518244 Rises=F Damp=F
 DIIS: error= 2.52D-03 at cycle   4 NSaved=   4.
 NSaved= 4 IEnMin= 4 EnMin= -2238.04271034825     IErMin= 4 ErrMin= 2.52D-03
 ErrMax= 2.52D-03  0.00D+00 EMaxC= 1.00D-01 BMatC= 9.86D-04 BMatP= 3.04D-03
 IDIUse=3 WtCom= 9.75D-01 WtEn= 2.52D-02
 Coeff-Com:  0.284D-01 0.630D-01 0.409D+00 0.500D+00
 Coeff-En:   0.000D+00 0.000D+00 0.220D+00 0.780D+00
 Coeff:      0.277D-01 0.615D-01 0.404D+00 0.507D+00
 Gap=     0.298 Goal=   None    Shift=    0.000
 RMSDP=1.42D-04 MaxDP=6.24D-03 DE=-1.66D-03 OVMax= 6.24D-03

 Cycle   5  Pass 1  IDiag  1:
 RMSU=  5.64D-05    CP:  9.95D-01  4.96D-01  7.61D-01  5.18D-01
 E= -2238.04343369548     Delta-E=       -0.000723347230 Rises=F Damp=F
 DIIS: error= 4.01D-04 at cycle   5 NSaved=   5.
 NSaved= 5 IEnMin= 5 EnMin= -2238.04343369548     IErMin= 5 ErrMin= 4.01D-04
 ErrMax= 4.01D-04  0.00D+00 EMaxC= 1.00D-01 BMatC= 2.13D-05 BMatP= 9.86D-04
 IDIUse=3 WtCom= 9.96D-01 WtEn= 4.01D-03
 Coeff-Com:  0.443D-02 0.128D-01 0.118D+00 0.205D+00 0.660D+00
 Coeff-En:   0.000D+00 0.000D+00 0.000D+00 0.000D+00 0.100D+01
 Coeff:      0.441D-02 0.128D-01 0.117D+00 0.204D+00 0.662D+00
 Gap=     0.299 Goal=   None    Shift=    0.000
 RMSDP=2.41D-05 MaxDP=7.40D-04 DE=-7.23D-04 OVMax= 8.76D-04

 Cycle   6  Pass 1  IDiag  1:
 RMSU=  1.25D-05    CP:  9.95D-01  4.95D-01  7.64D-01  5.46D-01  6.63D-01
 E= -2238.04345100011     Delta-E=       -0.000017304628 Rises=F Damp=F
 DIIS: error= 4.52D-05 at cycle   6 NSaved=   6.
 NSaved= 6 IEnMin= 6 EnMin= -2238.04345100011     IErMin= 6 ErrMin= 4.52D-05
 ErrMax= 4.52D-05  0.00D+00 EMaxC= 1.00D-01 BMatC= 2.89D-07 BMatP= 2.13D-05
 IDIUse=1 WtCom= 1.00D+00 WtEn= 0.00D+00
 Coeff-Com:  0.177D-03 0.150D-02 0.220D-01 0.449D-01 0.193D+00 0.738D+00
 Coeff:      0.177D-03 0.150D-02 0.220D-01 0.449D-01 0.193D+00 0.738D+00
 Gap=     0.299 Goal=   None    Shift=    0.000
 RMSDP=5.07D-06 MaxDP=1.77D-04 DE=-1.73D-05 OVMax= 1.00D-04

 Cycle   7  Pass 1  IDiag  1:
 RMSU=  2.36D-06    CP:  9.95D-01  4.95D-01  7.64D-01  5.52D-01  7.09D-01
                    CP:  7.29D-01
 E= -2238.04345127847     Delta-E=       -0.000000278359 Rises=F Damp=F
 DIIS: error= 7.71D-06 at cycle   7 NSaved=   7.
 NSaved= 7 IEnMin= 7 EnMin= -2238.04345127847     IErMin= 7 ErrMin= 7.71D-06
 ErrMax= 7.71D-06  0.00D+00 EMaxC= 1.00D-01 BMatC= 1.13D-08 BMatP= 2.89D-07
 IDIUse=1 WtCom= 1.00D+00 WtEn= 0.00D+00
 Coeff-Com: -0.102D-03-0.109D-03 0.112D-02 0.368D-02 0.219D-01 0.208D+00
 Coeff-Com:  0.766D+00
 Coeff:     -0.102D-03-0.109D-03 0.112D-02 0.368D-02 0.219D-01 0.208D+00
 Coeff:      0.766D+00
 Gap=     0.299 Goal=   None    Shift=    0.000
 RMSDP=1.00D-06 MaxDP=6.36D-05 DE=-2.78D-07 OVMax= 3.53D-05

 Cycle   8  Pass 1  IDiag  1:
 RMSU=  6.15D-07    CP:  9.95D-01  4.95D-01  7.65D-01  5.52D-01  7.07D-01
                    CP:  7.73D-01  7.90D-01
 E= -2238.04345128983     Delta-E=       -0.000000011362 Rises=F Damp=F
 DIIS: error= 2.84D-06 at cycle   8 NSaved=   8.
 NSaved= 8 IEnMin= 8 EnMin= -2238.04345128983     IErMin= 8 ErrMin= 2.84D-06
 ErrMax= 2.84D-06  0.00D+00 EMaxC= 1.00D-01 BMatC= 1.49D-09 BMatP= 1.13D-08
 IDIUse=1 WtCom= 1.00D+00 WtEn= 0.00D+00
 Coeff-Com: -0.586D-04-0.141D-03-0.735D-03-0.752D-03-0.425D-03 0.651D-01
 Coeff-Com:  0.369D+00 0.568D+00
 Coeff:     -0.586D-04-0.141D-03-0.735D-03-0.752D-03-0.425D-03 0.651D-01
 Coeff:      0.369D+00 0.568D+00
 Gap=     0.299 Goal=   None    Shift=    0.000
 RMSDP=3.27D-07 MaxDP=1.91D-05 DE=-1.14D-08 OVMax= 1.08D-05

 Cycle   9  Pass 1  IDiag  1:
 RMSU=  1.27D-07    CP:  9.95D-01  4.95D-01  7.65D-01  5.52D-01  7.06D-01
                    CP:  7.75D-01  8.50D-01  5.90D-01
 E= -2238.04345129147     Delta-E=       -0.000000001641 Rises=F Damp=F
 DIIS: error= 2.94D-07 at cycle   9 NSaved=   9.
 NSaved= 9 IEnMin= 9 EnMin= -2238.04345129147     IErMin= 9 ErrMin= 2.94D-07
 ErrMax= 2.94D-07  0.00D+00 EMaxC= 1.00D-01 BMatC= 2.33D-11 BMatP= 1.49D-09
 IDIUse=1 WtCom= 1.00D+00 WtEn= 0.00D+00
 Coeff-Com: -0.100D-04-0.277D-04-0.209D-03-0.287D-03-0.102D-02 0.688D-02
 Coeff-Com:  0.595D-01 0.153D+00 0.783D+00
 Coeff:     -0.100D-04-0.277D-04-0.209D-03-0.287D-03-0.102D-02 0.688D-02
 Coeff:      0.595D-01 0.153D+00 0.783D+00
 Gap=     0.299 Goal=   None    Shift=    0.000
 RMSDP=4.28D-08 MaxDP=2.53D-06 DE=-1.64D-09 OVMax= 1.42D-06

 Cycle  10  Pass 1  IDiag  1:
 RMSU=  2.52D-08    CP:  9.95D-01  4.95D-01  7.65D-01  5.52D-01  7.06D-01
                    CP:  7.75D-01  8.48D-01  6.26D-01  8.37D-01
 E= -2238.04345129151     Delta-E=       -0.000000000033 Rises=F Damp=F
 DIIS: error= 7.25D-08 at cycle  10 NSaved=  10.
 NSaved=10 IEnMin=10 EnMin= -2238.04345129151     IErMin=10 ErrMin= 7.25D-08
 ErrMax= 7.25D-08  0.00D+00 EMaxC= 1.00D-01 BMatC= 9.91D-13 BMatP= 2.33D-11
 IDIUse=1 WtCom= 1.00D+00 WtEn= 0.00D+00
 Coeff-Com: -0.543D-06-0.237D-05-0.347D-04-0.599D-04-0.306D-03-0.967D-03
 Coeff-Com:  0.166D-02 0.173D-01 0.205D+00 0.778D+00
 Coeff:     -0.543D-06-0.237D-05-0.347D-04-0.599D-04-0.306D-03-0.967D-03
 Coeff:      0.166D-02 0.173D-01 0.205D+00 0.778D+00
 Gap=     0.299 Goal=   None    Shift=    0.000
 RMSDP=1.13D-08 MaxDP=3.76D-07 DE=-3.27D-11 OVMax= 2.50D-07

 Cycle  11  Pass 1  IDiag  1:
 RMSU=  7.44D-09    CP:  9.95D-01  4.95D-01  7.65D-01  5.52D-01  7.06D-01
                    CP:  7.75D-01  8.49D-01  6.27D-01  8.79D-01  7.57D-01
 E= -2238.04345129151     Delta-E=       -0.000000000007 Rises=F Damp=F
 DIIS: error= 2.40D-08 at cycle  11 NSaved=  11.
 NSaved=11 IEnMin=11 EnMin= -2238.04345129151     IErMin=11 ErrMin= 2.40D-08
 ErrMax= 2.40D-08  0.00D+00 EMaxC= 1.00D-01 BMatC= 1.40D-13 BMatP= 9.91D-13
 IDIUse=1 WtCom= 1.00D+00 WtEn= 0.00D+00
 Coeff-Com:  0.223D-06 0.358D-06-0.461D-05-0.111D-04-0.752D-04-0.724D-03
 Coeff-Com: -0.199D-02 0.330D-03 0.463D-01 0.334D+00 0.622D+00
 Coeff:      0.223D-06 0.358D-06-0.461D-05-0.111D-04-0.752D-04-0.724D-03
 Coeff:     -0.199D-02 0.330D-03 0.463D-01 0.334D+00 0.622D+00
 Gap=     0.299 Goal=   None    Shift=    0.000
 RMSDP=3.41D-09 MaxDP=1.41D-07 DE=-7.28D-12 OVMax= 8.66D-08

 Error on total polarization charges =  0.00715
 SCF Done:  E(RB3LYP) =  -2238.04345129     A.U. after   11 cycles
            NFock= 11  Conv=0.34D-08     -V/T= 2.0029
 KE= 2.231461324954D+03 PE=-6.938783792127D+03 EE= 1.667246969301D+03
 SMD-CDS (non-electrostatic) energy       (kcal/mol) =      -1.94
 (included in total energy above)
 Leave Link  502 at Wed Jun 24 01:11:52 2026, MaxMem=  1879048192 cpu:              35.9 elap:               5.1
 (Enter /CH/g16/l508.exe)
 QCSCF skips out because SCF is already converged.
 Leave Link  508 at Wed Jun 24 01:11:52 2026, MaxMem=  1879048192 cpu:               0.0 elap:               0.0
 (Enter /CH/g16/l601.exe)
 Copying SCF densities to generalized density rwf, IOpCl= 0 IROHF=0.

 **********************************************************************

            Population analysis using the SCF Density.

 **********************************************************************

 Orbital symmetries:
       Occupied  (A) (A) (A) (A) (A) (A) (A) (A) (A) (A) (A) (A)
                 (A) (A) (A) (A) (A) (A) (A) (A) (A) (A) (A) (A)
                 (A) (A) (A) (A) (A) (A) (A) (A) (A) (A) (A) (A)
                 (A) (A) (A) (A) (A) (A) (A) (A) (A) (A) (A) (A)
                 (A) (A) (A) (A) (A) (A)
       Virtual   (A) (A) (A) (A) (A) (A) (A) (A) (A) (A) (A) (A)
                 (A) (A) (A) (A) (A) (A) (A) (A) (A) (A) (A) (A)
                 (A) (A) (A) (A) (A) (A) (A) (A) (A) (A) (A) (A)
                 (A) (A) (A) (A) (A) (A) (A) (A) (A) (A) (A) (A)
                 (A) (A) (A) (A) (A) (A) (A) (A) (A) (A) (A) (A)
                 (A) (A) (A) (A) (A) (A) (A) (A) (A) (A) (A) (A)
                 (A) (A) (A) (A) (A) (A) (A) (A) (A) (A) (A) (A)
                 (A) (A) (A) (A) (A) (A) (A) (A) (A) (A) (A) (A)
                 (A) (A) (A) (A) (A) (A) (A) (A) (A) (A) (A) (A)
 The electronic state is 1-A.
 Alpha  occ. eigenvalues -- -101.43639-101.43591-101.43428-101.43299 -56.05060
 Alpha  occ. eigenvalues --  -19.10677 -10.20174 -10.19914  -9.39101  -9.39056
 Alpha  occ. eigenvalues --   -9.38908  -9.38801  -7.15602  -7.15559  -7.15412
 Alpha  occ. eigenvalues --   -7.15306  -7.15211  -7.15201  -7.15166  -7.15156
 Alpha  occ. eigenvalues --   -7.15014  -7.15009  -7.14901  -7.14901  -4.14332
 Alpha  occ. eigenvalues --   -2.69948  -2.69944  -2.69942  -0.99777  -0.76712
 Alpha  occ. eigenvalues --   -0.74718  -0.74640  -0.74542  -0.68711  -0.60037
 Alpha  occ. eigenvalues --   -0.45344  -0.44505  -0.44228  -0.39901  -0.36482
 Alpha  occ. eigenvalues --   -0.35070  -0.33072  -0.33041  -0.33007  -0.29804
 Alpha  occ. eigenvalues --   -0.28609  -0.28482  -0.27911  -0.27906  -0.27283
 Alpha  occ. eigenvalues --   -0.26020  -0.25882  -0.25821  -0.22946
 Alpha virt. eigenvalues --    0.06918   0.10069   0.11825   0.11843   0.12122
 Alpha virt. eigenvalues --    0.13097   0.14284   0.14819   0.16646   0.17323
 Alpha virt. eigenvalues --    0.18526   0.18820   0.26126   0.31963   0.32440
 Alpha virt. eigenvalues --    0.34006   0.40321   0.40341   0.46704   0.47482
 Alpha virt. eigenvalues --    0.49410   0.49508   0.50902   0.51086   0.52177
 Alpha virt. eigenvalues --    0.54136   0.61408   0.62068   0.63328   0.66342
 Alpha virt. eigenvalues --    0.67250   0.68286   0.68830   0.70071   0.70685
 Alpha virt. eigenvalues --    0.72530   0.73512   0.79009   0.80981   0.81158
 Alpha virt. eigenvalues --    0.81480   0.83110   0.83156   0.83261   0.83498
 Alpha virt. eigenvalues --    0.83921   0.84404   0.84705   0.85409   0.86258
 Alpha virt. eigenvalues --    0.86640   0.87653   0.88048   0.89323   0.91539
 Alpha virt. eigenvalues --    0.92888   0.98141   0.99907   1.00559   1.00710
 Alpha virt. eigenvalues --    1.01255   1.01508   1.02593   1.04440   1.09483
 Alpha virt. eigenvalues --    1.10704   1.15532   1.15776   1.18299   1.21671
 Alpha virt. eigenvalues --    1.21850   1.28365   1.35425   1.36657   1.38585
 Alpha virt. eigenvalues --    1.38660   1.46741   1.50418   1.55238   1.55493
 Alpha virt. eigenvalues --    1.57539   1.71770   1.75775   1.76113   1.80426
 Alpha virt. eigenvalues --    1.84275   1.86184   1.87461   1.88465   1.94577
 Alpha virt. eigenvalues --    2.04273   2.21011   2.25471   2.31821   2.36522
 Alpha virt. eigenvalues --    2.36632   2.45908   2.66764   2.67743   2.81002
 Alpha virt. eigenvalues --    2.81566   2.88165   2.88634   2.97291   3.15411
 Alpha virt. eigenvalues --    3.15887   3.32718   3.51714
          Condensed to atoms (all electrons):
               1          2          3          4          5          6
     1  O    7.951785   0.319636   0.330703  -0.031969  -0.032860  -0.026465
     2  C    0.319636   4.433154  -0.044555   0.381782   0.382211   0.370938
     3  C    0.330703  -0.044555   4.422952  -0.004466  -0.004481   0.007170
     4  H   -0.031969   0.381782  -0.004466   0.699133  -0.053826  -0.023775
     5  H   -0.032860   0.382211  -0.004481  -0.053826   0.705058  -0.024833
     6  H   -0.026465   0.370938   0.007170  -0.023775  -0.024833   0.687775
     7  H   -0.027656   0.007149   0.379155   0.000101   0.000058  -0.000605
     8  H   -0.033910  -0.002943   0.374171   0.013671  -0.006605   0.000089
     9  H   -0.034514  -0.003786   0.375627  -0.006211   0.014934   0.000043
    10  Al  -0.000705   0.000493  -0.000500   0.006260   0.006785  -0.000987
    11  Cl   0.000023  -0.002483  -0.004135  -0.001382   0.009161   0.000078
    12  Cl   0.000044  -0.004512  -0.004992   0.014791  -0.000820   0.000103
    13  Cl   0.000038  -0.001384   0.000018   0.004711   0.005132   0.000806
    14  Cl   0.000000  -0.000002  -0.000001   0.000013   0.000010   0.000000
               7          8          9         10         11         12
     1  O   -0.027656  -0.033910  -0.034514  -0.000705   0.000023   0.000044
     2  C    0.007149  -0.002943  -0.003786   0.000493  -0.002483  -0.004512
     3  C    0.379155   0.374171   0.375627  -0.000500  -0.004135  -0.004992
     4  H    0.000101   0.013671  -0.006211   0.006260  -0.001382   0.014791
     5  H    0.000058  -0.006605   0.014934   0.006785   0.009161  -0.000820
     6  H   -0.000605   0.000089   0.000043  -0.000987   0.000078   0.000103
     7  H    0.683945  -0.026995  -0.027964  -0.000056   0.000116   0.000087
     8  H   -0.026995   0.716149  -0.045809   0.001761   0.000034   0.017175
     9  H   -0.027964  -0.045809   0.719941   0.001353   0.014098  -0.000036
    10  Al  -0.000056   0.001761   0.001353  11.035516   0.326896   0.318536
    11  Cl   0.000116   0.000034   0.014098   0.326896  17.088631  -0.013199
    12  Cl   0.000087   0.017175  -0.000036   0.318536  -0.013199  17.088967
    13  Cl  -0.000001  -0.000067  -0.000048   0.322840  -0.013391  -0.013241
    14  Cl   0.000000   0.000004   0.000002   0.343758  -0.013779  -0.013533
              13         14
     1  O    0.000038   0.000000
     2  C   -0.001384  -0.000002
     3  C    0.000018  -0.000001
     4  H    0.004711   0.000013
     5  H    0.005132   0.000010
     6  H    0.000806   0.000000
     7  H   -0.000001   0.000000
     8  H   -0.000067   0.000004
     9  H   -0.000048   0.000002
    10  Al   0.322840   0.343758
    11  Cl  -0.013391  -0.013779
    12  Cl  -0.013241  -0.013533
    13  Cl  17.109872  -0.013674
    14  Cl  -0.013674  17.086305
 Mulliken charges:
               1
     1  O   -0.414151
     2  C    0.164302
     3  C    0.173333
     4  H    0.001169
     5  H    0.000076
     6  H    0.009663
     7  H    0.012666
     8  H   -0.006725
     9  H   -0.007631
    10  Al   0.638050
    11  Cl  -0.390668
    12  Cl  -0.389370
    13  Cl  -0.401611
    14  Cl  -0.389104
 Sum of Mulliken charges =  -1.00000
 Mulliken charges with hydrogens summed into heavy atoms:
               1
     1  O   -0.414151
     2  C    0.175211
     3  C    0.171643
    10  Al   0.638050
    11  Cl  -0.390668
    12  Cl  -0.389370
    13  Cl  -0.401611
    14  Cl  -0.389104
 Electronic spatial extent (au):  <R**2>=           2819.5795
 Charge=             -1.0000 electrons
 Dipole moment (field-independent basis, Debye):
    X=             -2.8523    Y=             -0.3040    Z=             -0.0739  Tot=              2.8694
 Quadrupole moment (field-independent basis, Debye-Ang):
   XX=           -110.7733   YY=            -91.0582   ZZ=            -93.2992
   XY=              2.2218   XZ=              0.3399   YZ=             -0.0223
 Traceless Quadrupole moment (field-independent basis, Debye-Ang):
   XX=            -12.3964   YY=              7.3187   ZZ=              5.0777
   XY=              2.2218   XZ=              0.3399   YZ=             -0.0223
 Octapole moment (field-independent basis, Debye-Ang**2):
  XXX=             11.2562  YYY=             -8.8356  ZZZ=             -1.1517  XYY=            -15.3972
  XXY=             -6.7445  XXZ=             -1.4523  XZZ=             -2.6036  YZZ=              7.5172
  YYZ=              1.6747  XYZ=              0.3164
 Hexadecapole moment (field-independent basis, Debye-Ang**3):
 XXXX=          -2724.0957 YYYY=           -737.5304 ZZZZ=           -617.2775 XXXY=             63.6181
 XXXZ=              2.4192 YYYX=            -15.8346 YYYZ=              0.4021 ZZZX=             -0.7286
 ZZZY=             -0.1872 XXYY=           -481.9918 XXZZ=           -489.3287 YYZZ=           -226.2225
 XXYZ=             -0.2229 YYXZ=              0.5544 ZZXY=              2.6488
 N-N= 8.020320465802D+02 E-N=-6.938783791905D+03  KE= 2.231461324954D+03
 No NMR shielding tensors so no spin-rotation constants.
 Leave Link  601 at Wed Jun 24 01:11:53 2026, MaxMem=  1879048192 cpu:               0.3 elap:               0.1
 (Enter /CH/g16/l701.exe)
 ... and contract with generalized density number  0.
 Compute integral first derivatives.
 R6Disp: Adding Grimme-D3(BJ) dispersion energy 1st derivatives to the gradient.
   1 Symmetry operations used in ECPInt.
 ECPInt:  NShTT=    2926 NPrTT=   12418 LenC2=    2743 LenP2D=    8096.
 LDataN:  DoStor=T MaxTD1= 5 Len=  102
 D1PCM: PCM CHGder 1st derivatives, ID1Alg=3 FixD1E=F DoIter=F DoCFld=F I1PDM=0.
 GePol: Maximum number of non-zero 1st derivatives   =     358
 Leave Link  701 at Wed Jun 24 01:11:53 2026, MaxMem=  1879048192 cpu:               3.1 elap:               0.5
 (Enter /CH/g16/l702.exe)
 L702 exits ... SP integral derivatives will be done elsewhere.
 Leave Link  702 at Wed Jun 24 01:11:53 2026, MaxMem=  1879048192 cpu:               0.0 elap:               0.0
 (Enter /CH/g16/l703.exe)
 Integral derivatives from FoFJK, PRISM(SPDF).
 Compute integral first derivatives, UseDBF=F ICtDFT=           0.
 Calling FoFJK, ICntrl=      2127 FMM=F ISym2X=0 I1Cent= 0 IOpClX= 0 NMat=1 NMatS=1 NMatT=0.
 FoFJK:  IHMeth= 1 ICntrl=    2127 DoSepK=F KAlg= 0 I1Cent=           0 FoldK=F
 IRaf=         0 NMat=       1 IRICut=       1 DoRegI=T DoRafI=F ISym2E= 0 IDoP0=0 IntGTp=1.
 FoFCou: FMM=F IPFlag=           0 FMFlag=      100000 FMFlg1=         800
         NFxFlg=           0 DoJE=F BraDBF=F KetDBF=F FulRan=T
         wScrn=  0.000000 ICntrl=      2127 IOpCl=  0 I1Cent=           0 NGrid=           0
         NMat0=    1 NMatS0=      1 NMatT0=    0 NMatD0=    1 NMtDS0=    0 NMtDT0=    0
 Symmetry not used in FoFCou.
 Leave Link  703 at Wed Jun 24 01:11:54 2026, MaxMem=  1879048192 cpu:               5.7 elap:               0.7
 (Enter /CH/g16/l716.exe)
 Dipole        =-1.12218427D+00-1.19610065D-01-2.90645789D-02
 ***** Axes restored to original set *****
 -------------------------------------------------------------------
 Center     Atomic                   Forces (Hartrees/Bohr)
 Number     Number              X              Y              Z
 -------------------------------------------------------------------
      1        8          -0.000034349   -0.000042239   -0.000064761
      2        6           0.000018980    0.000000028   -0.000034143
      3        6          -0.000075206   -0.000074287    0.000178697
      4        1          -0.000024348    0.000003835    0.000037644
      5        1           0.000017242    0.000015018   -0.000025113
      6        1           0.000048510   -0.000012239   -0.000041788
      7        1           0.000013285    0.000052015    0.000043527
      8        1          -0.000071274    0.000005276   -0.000049751
      9        1           0.000080522    0.000004493   -0.000073519
     10       13          -0.000037167   -0.000003087    0.000047486
     11       17          -0.000010798    0.000107052   -0.000034637
     12       17           0.000047424    0.000074484   -0.000033682
     13       17           0.000022306   -0.000105966   -0.000019081
     14       17           0.000004873   -0.000024384    0.000069122
 -------------------------------------------------------------------
 Cartesian Forces:  Max     0.000178697 RMS     0.000054843
 Leave Link  716 at Wed Jun 24 01:11:54 2026, MaxMem=  1879048192 cpu:               0.0 elap:               0.0
 (Enter /CH/g16/l103.exe)

 GradGradGradGradGradGradGradGradGradGradGradGradGradGradGradGradGradGrad
 Berny optimization.
 FormGI is forming the generalized inverse of G from B-inverse, IUseBI=4.
 Internal  Forces:  Max     0.000115028 RMS     0.000034093
 Search for a local minimum.
 Step number   1 out of a maximum of  100
 All quantities printed in internal units (Hartrees-Bohrs-Radians)
 RMS Force = .34093D-04 SwitMx=.10000D-02 MixMth= 2
 Mixed Optimization -- En-DIIS/RFO-DIIS
 Second derivative matrix not updated -- first step.
 ITU=  0
     Eigenvalues ---    0.00636   0.00919   0.01249   0.01488   0.01823
     Eigenvalues ---    0.02029   0.02476   0.03318   0.04382   0.04869
     Eigenvalues ---    0.05938   0.06735   0.07800   0.08112   0.08237
     Eigenvalues ---    0.08434   0.08917   0.09740   0.10513   0.11281
     Eigenvalues ---    0.11981   0.12789   0.15072   0.17153   0.19391
     Eigenvalues ---    0.20032   0.20686   0.20980   0.27137   0.29561
     Eigenvalues ---    0.31509   0.32022   0.33496   0.33512   0.41835
     Eigenvalues ---    0.42485
 RFO step:  Lambda=-1.57517401D-06 EMin= 6.36243988D-03
 Linear search not attempted -- first point.
 Iteration  1 RMS(Cart)=  0.00120475 RMS(Int)=  0.00000127
 Iteration  2 RMS(Cart)=  0.00000119 RMS(Int)=  0.00000045
 Iteration  3 RMS(Cart)=  0.00000000 RMS(Int)=  0.00000045
 ITry= 1 IFail=0 DXMaxC= 7.00D-03 DCOld= 1.00D+10 DXMaxT= 3.00D-01 DXLimC= 3.00D+00 Rises=F
 Variable       Old X    -DE/DX   Delta X   Delta X   Delta X     New X
                                 (Linear)    (Quad)   (Total)
    R1        2.65711   0.00005   0.00000   0.00014   0.00014   2.65725
    R2        2.65427  -0.00004   0.00000  -0.00003  -0.00003   2.65425
    R3        2.09058   0.00002   0.00000   0.00006   0.00006   2.09064
    R4        2.09202   0.00002   0.00000   0.00001   0.00001   2.09203
    R5        2.08161  -0.00003   0.00000  -0.00010  -0.00010   2.08151
    R6        2.08190  -0.00004   0.00000  -0.00012  -0.00012   2.08178
    R7        2.09419  -0.00007   0.00000  -0.00026  -0.00026   2.09393
    R8        2.09421   0.00012   0.00000   0.00036   0.00036   2.09457
    R9        5.77151  -0.00000   0.00000  -0.00054  -0.00054   5.77098
   R10        5.95339  -0.00002   0.00000   0.00004   0.00004   5.95342
   R11        6.02281   0.00000   0.00000   0.00018   0.00018   6.02299
   R12        5.83787   0.00003   0.00000   0.00066   0.00066   5.83853
   R13        5.92476   0.00001   0.00000   0.00183   0.00183   5.92659
   R14        4.09561  -0.00001   0.00000  -0.00002  -0.00002   4.09558
   R15        4.09985  -0.00005   0.00000  -0.00024  -0.00024   4.09961
   R16        4.09319  -0.00010   0.00000  -0.00062  -0.00062   4.09257
   R17        4.08984   0.00001   0.00000   0.00004   0.00004   4.08989
    A1        1.96033  -0.00001   0.00000   0.00002   0.00002   1.96035
    A2        1.95567  -0.00001   0.00000  -0.00008  -0.00008   1.95560
    A3        1.95669   0.00003   0.00000   0.00046   0.00046   1.95714
    A4        1.88617   0.00001   0.00000   0.00018   0.00018   1.88635
    A5        1.87594   0.00000   0.00000  -0.00012  -0.00012   1.87582
    A6        1.89424  -0.00001   0.00000  -0.00007  -0.00007   1.89417
    A7        1.89347  -0.00002   0.00000  -0.00039  -0.00039   1.89308
    A8        1.88585  -0.00001   0.00000  -0.00004  -0.00004   1.88582
    A9        1.95749   0.00004   0.00000   0.00017   0.00017   1.95766
   A10        1.95742  -0.00010   0.00000  -0.00058  -0.00058   1.95684
   A11        1.89778  -0.00002   0.00000   0.00001   0.00001   1.89779
   A12        1.89571   0.00007   0.00000   0.00060   0.00060   1.89630
   A13        1.86813   0.00002   0.00000  -0.00012  -0.00012   1.86801
   A14        2.45156  -0.00002   0.00000  -0.00033  -0.00033   2.45122
   A15        1.85512   0.00001   0.00000  -0.00012  -0.00012   1.85500
   A16        1.21535  -0.00001   0.00000  -0.00016  -0.00016   1.21519
   A17        1.81714  -0.00000   0.00000  -0.00018  -0.00018   1.81695
   A18        2.46096   0.00000   0.00000  -0.00013  -0.00013   2.46082
   A19        2.29301   0.00001   0.00000   0.00005   0.00005   2.29306
   A20        1.91691   0.00005   0.00000   0.00064   0.00064   1.91756
   A21        1.91401  -0.00008   0.00000  -0.00086  -0.00086   1.91315
   A22        1.90656   0.00004   0.00000   0.00048   0.00048   1.90704
   A23        1.91340   0.00002   0.00000  -0.00015  -0.00015   1.91325
   A24        1.90519  -0.00004   0.00000  -0.00031  -0.00031   1.90487
   A25        1.90767   0.00001   0.00000   0.00021   0.00021   1.90787
   A26        1.81545  -0.00001   0.00000   0.00003   0.00002   1.81547
   A27        0.82318   0.00000   0.00000  -0.00026  -0.00026   0.82292
   A28        1.38913  -0.00001   0.00000  -0.00013  -0.00013   1.38899
   A29        1.74630   0.00002   0.00000   0.00055   0.00055   1.74685
   A30        0.57084   0.00001   0.00000  -0.00003  -0.00003   0.57081
   A31        1.35096   0.00000   0.00000  -0.00021  -0.00021   1.35075
   A32        1.39642  -0.00001   0.00000  -0.00080  -0.00080   1.39563
    D1       -1.06565  -0.00000   0.00000   0.00064   0.00064  -1.06501
    D2        1.04550   0.00001   0.00000   0.00075   0.00075   1.04625
    D3        3.13135   0.00001   0.00000   0.00066   0.00066   3.13201
    D4        3.12507  -0.00001   0.00000  -0.00103  -0.00103   3.12404
    D5        1.03360  -0.00001   0.00000  -0.00112  -0.00112   1.03248
    D6       -1.06926   0.00000   0.00000  -0.00067  -0.00066  -1.06993
    D7        1.33796   0.00003   0.00000   0.00159   0.00159   1.33954
    D8        2.69155   0.00002   0.00000   0.00117   0.00117   2.69273
    D9       -0.81922   0.00001   0.00000   0.00115   0.00115  -0.81808
   D10        0.53437  -0.00001   0.00000   0.00073   0.00073   0.53511
   D11       -2.86378   0.00003   0.00000   0.00171   0.00171  -2.86207
   D12       -1.51019   0.00002   0.00000   0.00130   0.00130  -1.50889
   D13       -2.67815   0.00001   0.00000  -0.00081  -0.00081  -2.67896
   D14       -0.52159   0.00001   0.00000  -0.00069  -0.00069  -0.52228
   D15        1.52347  -0.00000   0.00000  -0.00105  -0.00105   1.52242
   D16       -1.25779   0.00003   0.00000  -0.00012  -0.00012  -1.25790
   D17        2.94090   0.00002   0.00000  -0.00018  -0.00018   2.94072
   D18        0.89607  -0.00006   0.00000  -0.00082  -0.00082   0.89525
   D19        1.52117   0.00002   0.00000  -0.00292  -0.00292   1.51825
   D20       -2.67893  -0.00001   0.00000  -0.00293  -0.00293  -2.68186
   D21       -0.63273   0.00001   0.00000  -0.00268  -0.00268  -0.63541
   D22       -0.90891  -0.00002   0.00000  -0.00174  -0.00174  -0.91066
   D23        1.08698   0.00001   0.00000  -0.00061  -0.00061   1.08636
   D24       -2.50002  -0.00002   0.00000  -0.00146  -0.00146  -2.50148
   D25       -0.50413   0.00001   0.00000  -0.00033  -0.00033  -0.50446
   D26       -0.31758   0.00001   0.00000  -0.00043  -0.00043  -0.31801
   D27       -1.90735   0.00002   0.00000   0.00073   0.00073  -1.90663
   D28        2.09912  -0.00002   0.00000  -0.00076  -0.00076   2.09836
   D29        0.50935  -0.00001   0.00000   0.00040   0.00040   0.50974
   D30        0.31399  -0.00001   0.00000   0.00043   0.00043   0.31441
   D31        1.74890   0.00001   0.00000   0.00127   0.00127   1.75017
   D32        0.86808  -0.00002   0.00000   0.00096   0.00096   0.86904
   D33       -0.27517   0.00001   0.00000   0.00192   0.00192  -0.27325
   D34       -0.08635   0.00005   0.00000   0.00462   0.00462  -0.08173
   D35        0.66015  -0.00008   0.00000  -0.00228  -0.00228   0.65787
   D36       -1.44364  -0.00009   0.00000  -0.00196  -0.00196  -1.44560
   D37        2.74921  -0.00008   0.00000  -0.00198  -0.00198   2.74723
   D38       -1.32975   0.00006   0.00000   0.00138   0.00138  -1.32836
   D39       -0.58408   0.00005   0.00000   0.00078   0.00078  -0.58330
   D40        0.77441   0.00000   0.00000   0.00063   0.00063   0.77504
   D41        1.52009  -0.00000   0.00000   0.00002   0.00002   1.52011
   D42        2.86354   0.00000   0.00000   0.00060   0.00060   2.86414
   D43       -2.67397  -0.00001   0.00000  -0.00001  -0.00001  -2.67398
   D44        1.35376   0.00002   0.00000  -0.00037  -0.00037   1.35339
   D45        0.77311   0.00002   0.00000  -0.00045  -0.00045   0.77267
   D46       -0.75217  -0.00000   0.00000  -0.00053  -0.00053  -0.75269
   D47       -1.33281  -0.00001   0.00000  -0.00061  -0.00061  -1.33341
   D48       -2.83977   0.00003   0.00000  -0.00018  -0.00018  -2.83995
   D49        2.86277   0.00002   0.00000  -0.00026  -0.00026   2.86252
         Item               Value     Threshold  Converged?
 Maximum Force            0.000115     0.000450     YES
 RMS     Force            0.000034     0.000300     YES
 Maximum Displacement     0.007001     0.001800     NO 
 RMS     Displacement     0.001205     0.001200     NO 
 Predicted change in Energy=-7.874433D-07
 Lowest energy point so far.  Saving SCF results.
 GradGradGradGradGradGradGradGradGradGradGradGradGradGradGradGradGradGrad

 Leave Link  103 at Wed Jun 24 01:11:54 2026, MaxMem=  1879048192 cpu:               0.0 elap:               0.0
 (Enter /CH/g16/l202.exe)
                          Input orientation:                          
 ---------------------------------------------------------------------
 Center     Atomic      Atomic             Coordinates (Angstroms)
 Number     Number       Type             X           Y           Z
 ---------------------------------------------------------------------
      1          8           0       -3.843654    0.206547    0.033739
      2          6           0       -2.785468    1.131204   -0.016576
      3          6           0       -3.392884   -1.122962   -0.011192
      4          1           0       -2.093867    1.017846    0.839452
      5          1           0       -2.187400    1.030738   -0.942745
      6          1           0       -3.215551    2.144834    0.012765
      7          1           0       -4.272161   -1.783760    0.050500
      8          1           0       -2.709124   -1.361137    0.827585
      9          1           0       -2.846335   -1.346860   -0.949116
     10         13           0        1.046600   -0.016104   -0.000336
     11         17           0        0.173306   -1.000685   -1.722283
     12         17           0        0.160684   -0.793051    1.821171
     13         17           0        0.695789    2.117223   -0.127146
     14         17           0        3.178033   -0.390364    0.031472
 ---------------------------------------------------------------------
                    Distance matrix (angstroms):
                    1          2          3          4          5
     1  O    0.000000
     2  C    1.406158   0.000000
     3  C    1.404566   2.334576   0.000000
     4  H    2.090247   1.106322   2.644636   0.000000
     5  H    2.091886   1.107053   2.638068   1.784697   0.000000
     6  H    2.037623   1.101489   3.272691   1.792119   1.792011
     7  H    2.035982   3.272885   1.101630   3.635438   3.640627
     8  H    2.091646   2.632528   1.108062   2.457284   3.021148
     9  H    2.091345   2.648422   1.108399   3.058926   2.467227
    10  Al   4.895438   4.000166   4.575398   3.411280   3.527432
    11  Cl   4.547196   4.026007   3.957334   3.972031   3.210497
    12  Cl   4.497647   3.969872   4.011762   3.053870   4.059426
    13  Cl   4.927789   3.619891   5.218188   3.150416   3.187230
    14  Cl   7.047013   6.154740   6.611767   5.516232   5.635291
                    6          7          8          9         10
     6  H    0.000000
     7  H    4.068378   0.000000
     8  H    3.634864   1.795984   0.000000
     9  H    3.640531   1.795297   1.782049   0.000000
    10  Al   4.778678   5.605034   4.074313   4.222090   0.000000
    11  Cl   4.938526   4.849550   3.865250   3.136217   2.167290
    12  Cl   4.827055   4.875130   3.089617   4.125938   2.169419
    13  Cl   3.913940   6.319000   4.960235   5.022166   2.165695
    14  Cl   6.877900   7.579400   6.019536   6.178144   2.164276
                   11         12         13         14
    11  Cl   0.000000
    12  Cl   3.549554   0.000000
    13  Cl   3.541017   3.542875   0.000000
    14  Cl   3.532214   3.531228   3.531952   0.000000
 Stoichiometry    C2H6AlCl4O(1-)
 Framework group  C1[X(C2H6AlCl4O)]
 Deg. of freedom    36
 Full point group                 C1      NOp   1
 RotChk:  IX=0 Diff= 2.74D-03
 Largest Abelian subgroup         C1      NOp   1
 Largest concise Abelian subgroup C1      NOp   1
                         Standard orientation:                         
 ---------------------------------------------------------------------
 Center     Atomic      Atomic             Coordinates (Angstroms)
 Number     Number       Type             X           Y           Z
 ---------------------------------------------------------------------
      1          8           0       -3.843550    0.206859    0.034902
      2          6           0       -2.785154    1.131360   -0.013836
      3          6           0       -3.393104   -1.122668   -0.012654
      4          1           0       -2.093426    1.016201    0.841849
      5          1           0       -2.187277    1.032524   -0.940304
      6          1           0       -3.214991    2.145034    0.017522
      7          1           0       -4.272527   -1.783375    0.047932
      8          1           0       -2.709250   -1.362609    0.825543
      9          1           0       -2.846778   -1.344902   -0.951104
     10         13           0        1.046644   -0.016887   -0.000482
     11         17           0        0.172806   -0.997965   -1.724152
     12         17           0        0.160872   -0.797106    1.819695
     13         17           0        0.696318    2.116762   -0.123148
     14         17           0        3.177994   -0.391712    0.030225
 ---------------------------------------------------------------------
 Rotational constants (GHZ):           1.0368124           0.4417620           0.4267067
 Leave Link  202 at Wed Jun 24 01:11:54 2026, MaxMem=  1879048192 cpu:               0.0 elap:               0.0
 (Enter /CH/g16/l301.exe)
 Standard basis: def2SVP (5D, 7F)
 Ernie: Thresh=  0.10000D-02 Tol=  0.10000D-05 Strict=F.
 There are   170 symmetry adapted cartesian basis functions of A   symmetry.
 There are   162 symmetry adapted basis functions of A   symmetry.
   162 basis functions,   302 primitive gaussians,   170 cartesian basis functions
    54 alpha electrons       54 beta electrons
       nuclear repulsion energy       802.1001565165 Hartrees.
 IExCor=  402 DFT=T Ex+Corr=B3LYP ExCW=0 ScaHFX=  0.200000
 ScaDFX=  0.800000  0.720000  1.000000  0.810000 ScalE2=  1.000000  1.000000
 IRadAn=      5 IRanWt=     -1 IRanGd=            0 ICorTp=0 IEmpDi=141
 NAtoms=   14 NActive=   14 NUniq=   14 SFac= 1.00D+00 NAtFMM=   60 NAOKFM=F Big=F
 Integral buffers will be    131072 words long.
 Raffenetti 2 integral format.
 Two-electron integral symmetry is turned on.
 R6Disp:  Grimme-D3(BJ) Dispersion energy=       -0.0285436465 Hartrees.
 Nuclear repulsion after empirical dispersion term =      802.0716128700 Hartrees.
 ------------------------------------------------------------------------------
 Polarizable Continuum Model (PCM)
 =================================
 Model                : PCM.
 Atomic radii         : SMD-Coulomb.
 Polarization charges : Total charges.
 Charge compensation  : None.
 Solution method      : On-the-fly selection.
 Cavity type          : VdW (van der Waals Surface) (Alpha=1.000).
 Cavity algorithm     : GePol (No added spheres)
                        Default sphere list used, NSphG=   14.
                        Lebedev-Laikov grids with approx.  5.0 points / Ang**2.
                        Smoothing algorithm: York/Karplus (Gamma=1.0000).
                        Polarization charges: spherical gaussians, with
                                              point-specific exponents (IZeta= 3).
                        Self-potential: point-specific (ISelfS= 7).
                        Self-field    : sphere-specific E.n sum rule (ISelfD= 2).
 1st derivatives      : Analytical E(r).r(x)/FMM algorithm (CHGder, D1EAlg=3).
                        Cavity 1st derivative terms included.
 Solvent              : TetraHydroFuran, Eps=   7.425700 Eps(inf)=   1.974025
 ------------------------------------------------------------------------------
 Spheres list:
 ISph  on   Nord     Re0    Alpha      Xe            Ye            Ze
    1   O      1    2.2940  1.000     -3.843550      0.206859      0.034902
    2   C      2    1.8500  1.000     -2.785154      1.131360     -0.013836
    3   C      3    1.8500  1.000     -3.393104     -1.122668     -0.012654
    4   H      4    1.2000  1.000     -2.093426      1.016201      0.841849
    5   H      5    1.2000  1.000     -2.187277      1.032524     -0.940304
    6   H      6    1.2000  1.000     -3.214991      2.145034      0.017522
    7   H      7    1.2000  1.000     -4.272527     -1.783375      0.047932
    8   H      8    1.2000  1.000     -2.709250     -1.362609      0.825543
    9   H      9    1.2000  1.000     -2.846778     -1.344902     -0.951104
   10  Al     10    2.3000  1.000      1.046644     -0.016887     -0.000482
   11  Cl     11    2.3800  1.000      0.172806     -0.997965     -1.724152
   12  Cl     12    2.3800  1.000      0.160872     -0.797106      1.819695
   13  Cl     13    2.3800  1.000      0.696318      2.116762     -0.123148
   14  Cl     14    2.3800  1.000      3.177994     -0.391712      0.030225
 ------------------------------------------------------------------------------
 GePol: Number of generator spheres                  =      14
 GePol: Total number of spheres                      =      14
 GePol: Number of exposed spheres                    =      14 (100.00%)
 GePol: Number of points                             =    1862
 GePol: Average weight of points                     =       0.14
 GePol: Minimum weight of points                     =   0.62D-10
 GePol: Maximum weight of points                     =    0.18138
 GePol: Number of points with low weight             =      74
 GePol: Fraction of low-weight points (<1% of avg)   =       3.97%
 GePol: Cavity surface area                          =    255.332 Ang**2
 GePol: Cavity volume                                =    268.658 Ang**3
 ------------------------------------------------------------------------------
 Atomic radii for non-electrostatic terms: SMD-CDS.
 ------------------------------------------------------------------------------
 PCM non-electrostatic energy =        -0.0030979928 Hartrees.
 Nuclear repulsion after PCM non-electrostatic terms =      802.0685148772 Hartrees.
 Leave Link  301 at Wed Jun 24 01:11:54 2026, MaxMem=  1879048192 cpu:               0.0 elap:               0.0
 (Enter /CH/g16/l302.exe)
 NPDir=0 NMtPBC=     1 NCelOv=     1 NCel=       1 NClECP=     1 NCelD=      1
         NCelK=      1 NCelE2=     1 NClLst=     1 CellRange=     0.0.
 One-electron integrals computed using PRISM.
 One-electron integral symmetry used in STVInt
   1 Symmetry operations used in ECPInt.
 ECPInt:  NShTT=    2926 NPrTT=   12418 LenC2=    2743 LenP2D=    8096.
 LDataN:  DoStor=T MaxTD1= 4 Len=   56
 NBasis=   162 RedAO= T EigKep=  8.47D-03  NBF=   162
 NBsUse=   162 1.00D-06 EigRej= -1.00D+00 NBFU=   162
 Precomputing XC quadrature grid using
 IXCGrd= 4 IRadAn=           5 IRanWt=          -1 IRanGd=           0 AccXCQ= 0.00D+00.
 Generated NRdTot=       0 NPtTot=           0 NUsed=           0 NTot=          32
 NSgBfM=   168   168   168   168   168 MxSgAt=    14 MxSgA2=    14.
 Leave Link  302 at Wed Jun 24 01:11:54 2026, MaxMem=  1879048192 cpu:               0.4 elap:               0.1
 (Enter /CH/g16/l303.exe)
 DipDrv:  MaxL=1.
 Leave Link  303 at Wed Jun 24 01:11:54 2026, MaxMem=  1879048192 cpu:               0.1 elap:               0.0
 (Enter /CH/g16/l401.exe)
 Initial guess from the checkpoint file:  "Me2O_cpx.chk"
 B after Tr=    -0.000000   -0.000000    0.000000
         Rot=    0.999999   -0.001344   -0.000067    0.000119 Ang=  -0.15 deg.
 Guess basis will be translated and rotated to current coordinates.
 JPrj=2 DoOrth=T DoCkMO=T.
 Leave Link  401 at Wed Jun 24 01:11:54 2026, MaxMem=  1879048192 cpu:               0.1 elap:               0.1
 (Enter /CH/g16/l502.exe)
 Integral symmetry usage will be decided dynamically.
 Closed shell SCF:
 Using DIIS extrapolation, IDIIS=  1040.
 NGot=  1879048192 LenX=  1878986852 LenY=  1878957511
 Requested convergence on RMS density matrix=1.00D-08 within  32 cycles.
 Requested convergence on MAX density matrix=1.00D-06.
 Requested convergence on             energy=1.00D-06.
 No special actions if energy rises.
 Fock matrices will be formed incrementally for  20 cycles.

 Cycle   1  Pass 1  IDiag  1:
 FoFJK:  IHMeth= 1 ICntrl=       0 DoSepK=F KAlg= 0 I1Cent=           0 FoldK=F
 IRaf= 890000000 NMat=       1 IRICut=       1 DoRegI=T DoRafI=F ISym2E= 0 IDoP0=0 IntGTp=1.
 FoFCou: FMM=F IPFlag=           0 FMFlag=      100000 FMFlg1=           0
         NFxFlg=           0 DoJE=F BraDBF=F KetDBF=F FulRan=T
         wScrn=  0.000000 ICntrl=         0 IOpCl=  0 I1Cent=           0 NGrid=           0
         NMat0=    1 NMatS0=      1 NMatT0=    0 NMatD0=    1 NMtDS0=    0 NMtDT0=    0
 Symmetry not used in FoFCou.
 Inv3:  Mode=1 IEnd=    10401132.
 Iteration    1 A*A^-1 deviation from unit magnitude is 3.33D-15 for    108.
 Iteration    1 A*A^-1 deviation from orthogonality  is 2.52D-15 for    259     68.
 Iteration    1 A^-1*A deviation from unit magnitude is 3.33D-15 for   1498.
 Iteration    1 A^-1*A deviation from orthogonality  is 1.96D-15 for    580    350.
 E= -2238.04344892660    
 DIIS: error= 1.00D-04 at cycle   1 NSaved=   1.
 NSaved= 1 IEnMin= 1 EnMin= -2238.04344892660     IErMin= 1 ErrMin= 1.00D-04
 ErrMax= 1.00D-04  0.00D+00 EMaxC= 1.00D-01 BMatC= 1.74D-06 BMatP= 1.74D-06
 IDIUse=3 WtCom= 9.99D-01 WtEn= 1.00D-03
 Coeff-Com:  0.100D+01
 Coeff-En:   0.100D+01
 Coeff:      0.100D+01
 Gap=     0.566 Goal=   None    Shift=    0.000
 RMSDP=1.24D-05 MaxDP=3.74D-04              OVMax= 4.11D-04

 Cycle   2  Pass 1  IDiag  1:
 RMSU=  1.24D-05    CP:  1.00D+00
 E= -2238.04345159468     Delta-E=       -0.000002668072 Rises=F Damp=F
 DIIS: error= 9.26D-06 at cycle   2 NSaved=   2.
 NSaved= 2 IEnMin= 2 EnMin= -2238.04345159468     IErMin= 2 ErrMin= 9.26D-06
 ErrMax= 9.26D-06  0.00D+00 EMaxC= 1.00D-01 BMatC= 1.45D-08 BMatP= 1.74D-06
 IDIUse=1 WtCom= 1.00D+00 WtEn= 0.00D+00
 Coeff-Com: -0.662D-01 0.107D+01
 Coeff:     -0.662D-01 0.107D+01
 Gap=     0.299 Goal=   None    Shift=    0.000
 RMSDP=1.38D-06 MaxDP=2.98D-05 DE=-2.67D-06 OVMax= 6.20D-05

 Cycle   3  Pass 1  IDiag  1:
 RMSU=  8.17D-07    CP:  1.00D+00  1.09D+00
 E= -2238.04345162086     Delta-E=       -0.000000026185 Rises=F Damp=F
 DIIS: error= 2.53D-06 at cycle   3 NSaved=   3.
 NSaved= 3 IEnMin= 3 EnMin= -2238.04345162086     IErMin= 3 ErrMin= 2.53D-06
 ErrMax= 2.53D-06  0.00D+00 EMaxC= 1.00D-01 BMatC= 8.77D-10 BMatP= 1.45D-08
 IDIUse=1 WtCom= 1.00D+00 WtEn= 0.00D+00
 Coeff-Com: -0.152D-01 0.214D+00 0.802D+00
 Coeff:     -0.152D-01 0.214D+00 0.802D+00
 Gap=     0.299 Goal=   None    Shift=    0.000
 RMSDP=2.86D-07 MaxDP=1.02D-05 DE=-2.62D-08 OVMax= 6.63D-06

 Cycle   4  Pass 1  IDiag  1:
 RMSU=  2.45D-07    CP:  1.00D+00  1.10D+00  8.47D-01
 E= -2238.04345162154     Delta-E=       -0.000000000681 Rises=F Damp=F
 DIIS: error= 7.78D-07 at cycle   4 NSaved=   4.
 NSaved= 4 IEnMin= 4 EnMin= -2238.04345162154     IErMin= 4 ErrMin= 7.78D-07
 ErrMax= 7.78D-07  0.00D+00 EMaxC= 1.00D-01 BMatC= 1.49D-10 BMatP= 8.77D-10
 IDIUse=1 WtCom= 1.00D+00 WtEn= 0.00D+00
 Coeff-Com: -0.205D-02 0.191D-01 0.291D+00 0.692D+00
 Coeff:     -0.205D-02 0.191D-01 0.291D+00 0.692D+00
 Gap=     0.299 Goal=   None    Shift=    0.000
 RMSDP=1.08D-07 MaxDP=3.79D-06 DE=-6.81D-10 OVMax= 2.54D-06

 Cycle   5  Pass 1  IDiag  1:
 RMSU=  5.72D-08    CP:  1.00D+00  1.10D+00  9.15D-01  7.03D-01
 E= -2238.04345162168     Delta-E=       -0.000000000137 Rises=F Damp=F
 DIIS: error= 3.51D-07 at cycle   5 NSaved=   5.
 NSaved= 5 IEnMin= 5 EnMin= -2238.04345162168     IErMin= 5 ErrMin= 3.51D-07
 ErrMax= 3.51D-07  0.00D+00 EMaxC= 1.00D-01 BMatC= 2.03D-11 BMatP= 1.49D-10
 IDIUse=1 WtCom= 1.00D+00 WtEn= 0.00D+00
 Coeff-Com: -0.465D-04-0.531D-02 0.880D-01 0.339D+00 0.579D+00
 Coeff:     -0.465D-04-0.531D-02 0.880D-01 0.339D+00 0.579D+00
 Gap=     0.299 Goal=   None    Shift=    0.000
 RMSDP=2.80D-08 MaxDP=1.06D-06 DE=-1.37D-10 OVMax= 1.02D-06

 Cycle   6  Pass 1  IDiag  1:
 RMSU=  1.49D-08    CP:  1.00D+00  1.10D+00  9.16D-01  7.52D-01  6.46D-01
 E= -2238.04345162169     Delta-E=       -0.000000000013 Rises=F Damp=F
 DIIS: error= 1.01D-07 at cycle   6 NSaved=   6.
 NSaved= 6 IEnMin= 6 EnMin= -2238.04345162169     IErMin= 6 ErrMin= 1.01D-07
 ErrMax= 1.01D-07  0.00D+00 EMaxC= 1.00D-01 BMatC= 1.67D-12 BMatP= 2.03D-11
 IDIUse=1 WtCom= 1.00D+00 WtEn= 0.00D+00
 Coeff-Com:  0.115D-03-0.431D-02 0.257D-01 0.129D+00 0.301D+00 0.548D+00
 Coeff:      0.115D-03-0.431D-02 0.257D-01 0.129D+00 0.301D+00 0.548D+00
 Gap=     0.299 Goal=   None    Shift=    0.000
 RMSDP=7.21D-09 MaxDP=2.60D-07 DE=-1.27D-11 OVMax= 2.45D-07

 Error on total polarization charges =  0.00715
 SCF Done:  E(RB3LYP) =  -2238.04345162     A.U. after    6 cycles
            NFock=  6  Conv=0.72D-08     -V/T= 2.0029
 KE= 2.231461737778D+03 PE=-6.938857624234D+03 EE= 1.667283919958D+03
 SMD-CDS (non-electrostatic) energy       (kcal/mol) =      -1.94
 (included in total energy above)
 Leave Link  502 at Wed Jun 24 01:11:57 2026, MaxMem=  1879048192 cpu:              22.4 elap:               3.3
 (Enter /CH/g16/l508.exe)
 QCSCF skips out because SCF is already converged.
 Leave Link  508 at Wed Jun 24 01:11:57 2026, MaxMem=  1879048192 cpu:               0.0 elap:               0.0
 (Enter /CH/g16/l701.exe)
 ... and contract with generalized density number  0.
 Compute integral first derivatives.
 R6Disp: Adding Grimme-D3(BJ) dispersion energy 1st derivatives to the gradient.
   1 Symmetry operations used in ECPInt.
 ECPInt:  NShTT=    2926 NPrTT=   12418 LenC2=    2743 LenP2D=    8096.
 LDataN:  DoStor=T MaxTD1= 5 Len=  102
 D1PCM: PCM CHGder 1st derivatives, ID1Alg=3 FixD1E=F DoIter=F DoCFld=F I1PDM=0.
 GePol: Maximum number of non-zero 1st derivatives   =     358
 Leave Link  701 at Wed Jun 24 01:11:58 2026, MaxMem=  1879048192 cpu:               3.1 elap:               0.4
 (Enter /CH/g16/l702.exe)
 L702 exits ... SP integral derivatives will be done elsewhere.
 Leave Link  702 at Wed Jun 24 01:11:58 2026, MaxMem=  1879048192 cpu:               0.0 elap:               0.0
 (Enter /CH/g16/l703.exe)
 Integral derivatives from FoFJK, PRISM(SPDF).
 Compute integral first derivatives, UseDBF=F ICtDFT=           0.
 Calling FoFJK, ICntrl=      2127 FMM=F ISym2X=0 I1Cent= 0 IOpClX= 0 NMat=1 NMatS=1 NMatT=0.
 FoFJK:  IHMeth= 1 ICntrl=    2127 DoSepK=F KAlg= 0 I1Cent=           0 FoldK=F
 IRaf=         0 NMat=       1 IRICut=       1 DoRegI=T DoRafI=F ISym2E= 0 IDoP0=0 IntGTp=1.
 FoFCou: FMM=F IPFlag=           0 FMFlag=      100000 FMFlg1=         800
         NFxFlg=           0 DoJE=F BraDBF=F KetDBF=F FulRan=T
         wScrn=  0.000000 ICntrl=      2127 IOpCl=  0 I1Cent=           0 NGrid=           0
         NMat0=    1 NMatS0=      1 NMatT0=    0 NMatD0=    1 NMtDS0=    0 NMtDT0=    0
 Symmetry not used in FoFCou.
 Leave Link  703 at Wed Jun 24 01:11:59 2026, MaxMem=  1879048192 cpu:               5.7 elap:               0.7
 (Enter /CH/g16/l716.exe)
 Dipole        =-1.12200262D+00-1.20569816D-01-2.82325247D-02
 ***** Axes restored to original set *****
 -------------------------------------------------------------------
 Center     Atomic                   Forces (Hartrees/Bohr)
 Number     Number              X              Y              Z
 -------------------------------------------------------------------
      1        8          -0.000003731    0.000032515   -0.000035150
      2        6           0.000048118   -0.000009523   -0.000003684
      3        6           0.000008513    0.000000664   -0.000022794
      4        1          -0.000040724    0.000006770    0.000025195
      5        1          -0.000007851   -0.000042881   -0.000030017
      6        1           0.000004845    0.000005926   -0.000023613
      7        1          -0.000001433    0.000016949    0.000008823
      8        1          -0.000026825   -0.000000350    0.000027933
      9        1           0.000003255   -0.000050952    0.000025062
     10       13          -0.000017581   -0.000027519    0.000035743
     11       17           0.000002426    0.000049388   -0.000013843
     12       17           0.000024455    0.000050058   -0.000033748
     13       17           0.000010786    0.000002958   -0.000018594
     14       17          -0.000004254   -0.000034004    0.000058688
 -------------------------------------------------------------------
[...]
 ! A32   A(5,13,10)             79.2465         -DE/DX =    0.0                 !
 ! D1    D(3,1,2,4)            -60.6997         -DE/DX =    0.0                 !
 ! D2    D(3,1,2,5)             60.2773         -DE/DX =    0.0                 !
 ! D3    D(3,1,2,6)            179.7711         -DE/DX =    0.0                 !
 ! D4    D(2,1,3,7)            179.6099         -DE/DX =    0.0                 !
 ! D5    D(2,1,3,8)             59.8053         -DE/DX =    0.0                 !
 ! D6    D(2,1,3,9)            -60.6696         -DE/DX =    0.0                 !
 ! D7    D(1,2,4,12)            78.9781         -DE/DX =    0.0                 !
 ! D8    D(1,2,4,13)           154.4242         -DE/DX =    0.0                 !
 ! D9    D(5,2,4,12)           -44.6195         -DE/DX =    0.0                 !
 ! D10   D(5,2,4,13)            30.8267         -DE/DX =    0.0                 !
 ! D11   D(6,2,4,12)          -161.7525         -DE/DX =    0.0                 !
 ! D12   D(6,2,4,13)           -86.3064         -DE/DX =    0.0                 !
 ! D13   D(1,2,5,13)          -154.4864         -DE/DX =    0.0                 !
 ! D14   D(4,2,5,13)           -30.9124         -DE/DX =    0.0                 !
 ! D15   D(6,2,5,13)            86.2516         -DE/DX =    0.0                 !
 ! D16   D(1,3,8,12)           -75.1344         -DE/DX =    0.0                 !
 ! D17   D(7,3,8,12)           165.4503         -DE/DX =    0.0                 !
 ! D18   D(9,3,8,12)            48.2627         -DE/DX =    0.0                 !
 ! D19   D(1,3,9,11)            83.8438         -DE/DX =    0.0                 !
 ! D20   D(7,3,9,11)          -156.7963         -DE/DX =    0.0                 !
 ! D21   D(8,3,9,11)           -39.5757         -DE/DX =    0.0                 !
 ! D22   D(2,4,12,8)           -55.3127         -DE/DX =    0.0                 !
 ! D23   D(2,4,12,10)           60.5123         -DE/DX =    0.0                 !
 ! D24   D(13,4,12,8)         -144.5042         -DE/DX =    0.0                 !
 ! D25   D(13,4,12,10)         -28.6792         -DE/DX =    0.0                 !
 ! D26   D(2,4,13,5)           -18.4264         -DE/DX =    0.0                 !
 ! D27   D(2,4,13,10)         -107.9499         -DE/DX =    0.0                 !
 ! D28   D(12,4,13,5)          118.5292         -DE/DX =    0.0                 !
 ! D29   D(12,4,13,10)          29.0057         -DE/DX =    0.0                 !
 ! D30   D(2,5,13,4)            18.44           -DE/DX =    0.0                 !
 ! D31   D(2,5,13,10)          101.9975         -DE/DX =    0.0                 !
 ! D32   D(3,8,12,4)            52.9695         -DE/DX =    0.0                 !
 ! D33   D(3,8,12,10)          -11.8042         -DE/DX =    0.0                 !
 ! D34   D(3,9,11,10)           -1.1275         -DE/DX =    0.0                 !
 ! D35   D(12,10,11,9)          36.6124         -DE/DX =    0.0                 !
 ! D36   D(13,10,11,9)         -83.8972         -DE/DX =    0.0                 !
 ! D37   D(14,10,11,9)         156.2866         -DE/DX =    0.0                 !
 ! D38   D(11,10,12,4)         -76.2548         -DE/DX =    0.0                 !
 ! D39   D(11,10,12,8)         -33.994          -DE/DX =    0.0                 !
 ! D40   D(13,10,12,4)          44.2446         -DE/DX =    0.0                 !
 ! D41   D(13,10,12,8)          86.5054         -DE/DX =    0.0                 !
 ! D42   D(14,10,12,4)         163.9683         -DE/DX =    0.0                 !
 ! D43   D(14,10,12,8)        -153.7709         -DE/DX =    0.0                 !
 ! D44   D(11,10,13,4)          77.928          -DE/DX =    0.0                 !
 ! D45   D(11,10,13,5)          44.5466         -DE/DX =    0.0                 !
 ! D46   D(12,10,13,4)         -42.7384         -DE/DX =    0.0                 !
 ! D47   D(12,10,13,5)         -76.1199         -DE/DX =    0.0                 !
 ! D48   D(14,10,13,4)        -162.3073         -DE/DX =    0.0                 !
 ! D49   D(14,10,13,5)         164.3113         -DE/DX =    0.0                 !
 --------------------------------------------------------------------------------
 Largest change from initial coordinates is atom    8       0.009 Angstoms.
 GradGradGradGradGradGradGradGradGradGradGradGradGradGradGradGradGradGrad

 Leave Link  103 at Wed Jun 24 01:13:57 2026, MaxMem=  1879048192 cpu:               0.0 elap:               0.0
 (Enter /CH/g16/l202.exe)
                          Input orientation:                          
 ---------------------------------------------------------------------
 Center     Atomic      Atomic             Coordinates (Angstroms)
 Number     Number       Type             X           Y           Z
 ---------------------------------------------------------------------
      1          8           0       -3.842897    0.208051    0.013306
      2          6           0       -2.778879    1.126953   -0.016948
      3          6           0       -3.398054   -1.124093   -0.002175
      4          1           0       -2.110020    1.017141    0.857537
      5          1           0       -2.158294    1.015616   -0.926701
      6          1           0       -3.204236    2.142948   -0.006755
      7          1           0       -4.282799   -1.779632    0.030295
      8          1           0       -2.749803   -1.358736    0.865428
      9          1           0       -2.815717   -1.359432   -0.915356
     10         13           0        1.045546   -0.010449   -0.011135
     11         17           0        0.175045   -0.979287   -1.743868
     12         17           0        0.156140   -0.802774    1.801042
     13         17           0        0.695395    2.124179   -0.119850
     14         17           0        3.176544   -0.387017    0.022469
 ---------------------------------------------------------------------
                    Distance matrix (angstroms):
                    1          2          3          4          5
     1  O    0.000000
     2  C    1.406212   0.000000
     3  C    1.404540   2.334695   0.000000
     4  H    2.090506   1.106415   2.642540   0.000000
     5  H    2.091330   1.106874   2.640096   1.784891   0.000000
     6  H    2.037675   1.101490   3.272789   1.792136   1.791974
     7  H    2.035850   3.272956   1.101616   3.636926   3.639062
     8  H    2.091838   2.637817   1.108161   2.460523   3.033011
     9  H    2.091534   2.643975   1.108332   3.047828   2.464384
    10  Al   4.893385   3.989980   4.581033   3.430470   3.486496
    11  Cl   4.543269   4.017980   3.977625   3.996818   3.176771
    12  Cl   4.495561   3.955157   3.998391   3.055778   4.012945
    13  Cl   4.928020   3.616024   5.226992   3.170359   3.165985
    14  Cl   7.044626   6.144975   6.615832   5.533242   5.597214
                    6          7          8          9         10
     6  H    0.000000
     7  H    4.068330   0.000000
     8  H    3.637170   1.795738   0.000000
     9  H    3.639117   1.795314   1.782004   0.000000
    10  Al   4.764219   5.614533   4.122004   4.188881   0.000000
    11  Cl   4.917871   4.864214   3.937912   3.126596   2.167667
    12  Cl   4.820533   4.877907   3.103059   4.064557   2.168596
    13  Cl   3.901316   6.328088   4.997086   5.009620   2.165886
    14  Cl   6.864105   7.588230   6.064356   6.142663   2.164276
                   11         12         13         14
    11  Cl   0.000000
    12  Cl   3.549352   0.000000
    13  Cl   3.541144   3.542271   0.000000
    14  Cl   3.532666   3.529733   3.533053   0.000000
 Stoichiometry    C2H6AlCl4O(1-)
 Framework group  C1[X(C2H6AlCl4O)]
 Deg. of freedom    36
 Full point group                 C1      NOp   1
 RotChk:  IX=0 Diff= 1.99D-15
 Largest Abelian subgroup         C1      NOp   1
 Largest concise Abelian subgroup C1      NOp   1
                         Standard orientation:                         
 ---------------------------------------------------------------------
 Center     Atomic      Atomic             Coordinates (Angstroms)
 Number     Number       Type             X           Y           Z
 ---------------------------------------------------------------------
      1          8           0       -3.841731    0.211839    0.017526
      2          6           0       -2.775709    1.128633   -0.005195
      3          6           0       -3.399709   -1.121128   -0.005871
      4          1           0       -2.108421    1.011755    0.869573
      5          1           0       -2.153977    1.021831   -0.914708
      6          1           0       -3.198912    2.145452    0.010905
      7          1           0       -4.285899   -1.774965    0.021035
      8          1           0       -2.753284   -1.362746    0.861179
      9          1           0       -2.816484   -1.351826   -0.919670
     10         13           0        1.046266   -0.016978   -0.000938
     11         17           0        0.176343   -0.972762   -1.741194
     12         17           0        0.152410   -0.819057    1.804747
     13         17           0        0.700838    2.119052   -0.096417
     14         17           0        3.176403   -0.398323    0.033457
 ---------------------------------------------------------------------
 Rotational constants (GHZ):           1.0371190           0.4419795           0.4269286
 Leave Link  202 at Wed Jun 24 01:13:57 2026, MaxMem=  1879048192 cpu:               0.0 elap:               0.0
 (Enter /CH/g16/l601.exe)
 Copying SCF densities to generalized density rwf, IOpCl= 0 IROHF=0.

 **********************************************************************

            Population analysis using the SCF Density.

 **********************************************************************

 Orbital symmetries:
       Occupied  (A) (A) (A) (A) (A) (A) (A) (A) (A) (A) (A) (A)
                 (A) (A) (A) (A) (A) (A) (A) (A) (A) (A) (A) (A)
                 (A) (A) (A) (A) (A) (A) (A) (A) (A) (A) (A) (A)
                 (A) (A) (A) (A) (A) (A) (A) (A) (A) (A) (A) (A)
                 (A) (A) (A) (A) (A) (A)
       Virtual   (A) (A) (A) (A) (A) (A) (A) (A) (A) (A) (A) (A)
                 (A) (A) (A) (A) (A) (A) (A) (A) (A) (A) (A) (A)
                 (A) (A) (A) (A) (A) (A) (A) (A) (A) (A) (A) (A)
                 (A) (A) (A) (A) (A) (A) (A) (A) (A) (A) (A) (A)
                 (A) (A) (A) (A) (A) (A) (A) (A) (A) (A) (A) (A)
                 (A) (A) (A) (A) (A) (A) (A) (A) (A) (A) (A) (A)
                 (A) (A) (A) (A) (A) (A) (A) (A) (A) (A) (A) (A)
                 (A) (A) (A) (A) (A) (A) (A) (A) (A) (A) (A) (A)
                 (A) (A) (A) (A) (A) (A) (A) (A) (A) (A) (A) (A)
 The electronic state is 1-A.
 Alpha  occ. eigenvalues -- -101.43628-101.43603-101.43422-101.43299 -56.05055
 Alpha  occ. eigenvalues --  -19.10670 -10.20177 -10.19896  -9.39092  -9.39067
 Alpha  occ. eigenvalues --   -9.38902  -9.38800  -7.15593  -7.15570  -7.15406
 Alpha  occ. eigenvalues --   -7.15305  -7.15202  -7.15192  -7.15177  -7.15167
 Alpha  occ. eigenvalues --   -7.15008  -7.15003  -7.14901  -7.14901  -4.14327
 Alpha  occ. eigenvalues --   -2.69944  -2.69940  -2.69937  -0.99767  -0.76714
 Alpha  occ. eigenvalues --   -0.74721  -0.74637  -0.74541  -0.68705  -0.60032
 Alpha  occ. eigenvalues --   -0.45339  -0.44499  -0.44221  -0.39901  -0.36476
 Alpha  occ. eigenvalues --   -0.35067  -0.33075  -0.33038  -0.33008  -0.29801
 Alpha  occ. eigenvalues --   -0.28612  -0.28480  -0.27909  -0.27906  -0.27276
 Alpha  occ. eigenvalues --   -0.26024  -0.25879  -0.25823  -0.22936
 Alpha virt. eigenvalues --    0.06927   0.10083   0.11829   0.11857   0.12127
 Alpha virt. eigenvalues --    0.13087   0.14287   0.14826   0.16678   0.17370
 Alpha virt. eigenvalues --    0.18547   0.18761   0.26130   0.31941   0.32452
 Alpha virt. eigenvalues --    0.34039   0.40325   0.40339   0.46691   0.47483
 Alpha virt. eigenvalues --    0.49423   0.49492   0.50922   0.51086   0.52188
 Alpha virt. eigenvalues --    0.54136   0.61402   0.61980   0.63337   0.66370
 Alpha virt. eigenvalues --    0.67245   0.68326   0.68763   0.70104   0.70812
 Alpha virt. eigenvalues --    0.72508   0.73487   0.79033   0.80981   0.81165
 Alpha virt. eigenvalues --    0.81481   0.83108   0.83160   0.83263   0.83522
 Alpha virt. eigenvalues --    0.83942   0.84374   0.84835   0.85376   0.86276
 Alpha virt. eigenvalues --    0.86656   0.87697   0.88027   0.89348   0.91560
 Alpha virt. eigenvalues --    0.92886   0.98158   0.99937   1.00596   1.00685
 Alpha virt. eigenvalues --    1.01333   1.01467   1.02740   1.04348   1.09425
 Alpha virt. eigenvalues --    1.10689   1.15592   1.15742   1.18338   1.21657
 Alpha virt. eigenvalues --    1.21825   1.28383   1.35425   1.36662   1.38593
 Alpha virt. eigenvalues --    1.38666   1.46759   1.50508   1.55164   1.55557
 Alpha virt. eigenvalues --    1.57538   1.71770   1.75765   1.76109   1.80447
 Alpha virt. eigenvalues --    1.84261   1.86218   1.87462   1.88505   1.94577
 Alpha virt. eigenvalues --    2.04279   2.21023   2.25491   2.31826   2.36542
 Alpha virt. eigenvalues --    2.36618   2.45940   2.66744   2.67776   2.81002
 Alpha virt. eigenvalues --    2.81559   2.88176   2.88663   2.97285   3.15417
 Alpha virt. eigenvalues --    3.15892   3.32735   3.51721
          Condensed to atoms (all electrons):
               1          2          3          4          5          6
     1  O    7.951937   0.319424   0.330822  -0.032134  -0.032625  -0.026440
     2  C    0.319424   4.433793  -0.044592   0.382033   0.382222   0.370677
     3  C    0.330822  -0.044592   4.422629  -0.004431  -0.004527   0.007174
     4  H   -0.032134   0.382033  -0.004431   0.699862  -0.053870  -0.023941
     5  H   -0.032625   0.382222  -0.004527  -0.053870   0.703130  -0.024559
     6  H   -0.026440   0.370677   0.007174  -0.023941  -0.024559   0.688077
     7  H   -0.027692   0.007145   0.379292   0.000092   0.000072  -0.000604
     8  H   -0.034062  -0.003167   0.374763   0.013906  -0.006479   0.000078
     9  H   -0.034407  -0.003552   0.375196  -0.006319   0.014645   0.000051
    10  Al  -0.000719   0.000508  -0.000526   0.006351   0.006956  -0.001015
    11  Cl   0.000027  -0.002913  -0.004332  -0.001224   0.010248   0.000083
    12  Cl   0.000040  -0.004324  -0.004734   0.014266  -0.001008   0.000109
    13  Cl   0.000038  -0.001265   0.000017   0.004452   0.005224   0.000839
    14  Cl   0.000000  -0.000002  -0.000001   0.000012   0.000011   0.000000
               7          8          9         10         11         12
     1  O   -0.027692  -0.034062  -0.034407  -0.000719   0.000027   0.000040
     2  C    0.007145  -0.003167  -0.003552   0.000508  -0.002913  -0.004324
     3  C    0.379292   0.374763   0.375196  -0.000526  -0.004332  -0.004734
     4  H    0.000092   0.013906  -0.006319   0.006351  -0.001224   0.014266
     5  H    0.000072  -0.006479   0.014645   0.006956   0.010248  -0.001008
     6  H   -0.000604   0.000078   0.000051  -0.001015   0.000083   0.000109
     7  H    0.683821  -0.027313  -0.027672  -0.000054   0.000106   0.000092
     8  H   -0.027313   0.717213  -0.045881   0.001653  -0.000008   0.016207
     9  H   -0.027672  -0.045881   0.719132   0.001463   0.014863  -0.000047
    10  Al  -0.000054   0.001653   0.001463  11.035188   0.325159   0.320456
    11  Cl   0.000106  -0.000008   0.014863   0.325159  17.088648  -0.013183
    12  Cl   0.000092   0.016207  -0.000047   0.320456  -0.013183  17.088199
    13  Cl  -0.000000  -0.000055  -0.000053   0.322820  -0.013398  -0.013280
    14  Cl   0.000000   0.000003   0.000003   0.343772  -0.013693  -0.013645
              13         14
     1  O    0.000038   0.000000
     2  C   -0.001265  -0.000002
     3  C    0.000017  -0.000001
     4  H    0.004452   0.000012
     5  H    0.005224   0.000011
     6  H    0.000839   0.000000
     7  H   -0.000000   0.000000
     8  H   -0.000055   0.000003
     9  H   -0.000053   0.000003
    10  Al   0.322820   0.343772
    11  Cl  -0.013398  -0.013693
    12  Cl  -0.013280  -0.013645
    13  Cl  17.110097  -0.013624
    14  Cl  -0.013624  17.086282
 Mulliken charges:
               1
     1  O   -0.414208
     2  C    0.164014
     3  C    0.173251
     4  H    0.000945
     5  H    0.000561
     6  H    0.009473
     7  H    0.012716
     8  H   -0.006857
     9  H   -0.007421
    10  Al   0.637987
    11  Cl  -0.390383
    12  Cl  -0.389147
    13  Cl  -0.401811
    14  Cl  -0.389118
 Sum of Mulliken charges =  -1.00000
 Mulliken charges with hydrogens summed into heavy atoms:
               1
     1  O   -0.414208
     2  C    0.174992
     3  C    0.171687
    10  Al   0.637987
    11  Cl  -0.390383
    12  Cl  -0.389147
    13  Cl  -0.401811
    14  Cl  -0.389118
 Electronic spatial extent (au):  <R**2>=           2818.1581
 Charge=             -1.0000 electrons
 Dipole moment (field-independent basis, Debye):
    X=             -2.8477    Y=             -0.3171    Z=             -0.0313  Tot=              2.8654
 Quadrupole moment (field-independent basis, Debye-Ang):
   XX=           -110.7519   YY=            -91.0721   ZZ=            -93.2957
   XY=              2.2963   XZ=              0.1530   YZ=             -0.0053
 Traceless Quadrupole moment (field-independent basis, Debye-Ang):
   XX=            -12.3787   YY=              7.3012   ZZ=              5.0775
   XY=              2.2963   XZ=              0.1530   YZ=             -0.0053
 Octapole moment (field-independent basis, Debye-Ang**2):
  XXX=             11.1304  YYY=             -8.8967  ZZZ=             -0.7279  XYY=            -15.3695
  XXY=             -6.9745  XXZ=             -0.9163  XZZ=             -2.5800  YZZ=              7.5565
  YYZ=              1.2228  XYZ=              0.1926
 Hexadecapole moment (field-independent basis, Debye-Ang**3):
 XXXX=          -2721.2334 YYYY=           -736.8045 ZZZZ=           -617.3789 XXXY=             65.2599
 XXXZ=              0.5245 YYYX=            -16.0620 YYYZ=              0.3003 ZZZX=             -0.3572
 ZZZY=             -0.2403 XXYY=           -482.1756 XXZZ=           -489.1296 YYZZ=           -226.0678
 XXYZ=              0.0427 YYXZ=              0.5407 ZZXY=              2.6242
 N-N= 8.022238233364D+02 E-N=-6.939168958873D+03  KE= 2.231462165010D+03
 No NMR shielding tensors so no spin-rotation constants.
 Leave Link  601 at Wed Jun 24 01:13:57 2026, MaxMem=  1879048192 cpu:               0.3 elap:               0.1
 (Enter /CH/g16/l9999.exe)
 Unable to Open any file for archive entry.
 1\1\GINC-NODE0-CHCLUSTER\FOpt\RB3LYP\def2SVP\C2H6Al1Cl4O1(1-)\LS\24-Ju
 n-2026\0\\#p B3LYP/def2SVP EmpiricalDispersion=GD3BJ opt=(maxcycles=20
 0) scf=xqc SCRF=(SMD,Solvent=Tetrahydrofuran) int=ultrafine\\Me2O+AlCl
 4(-) restart\\-1,1\O,-3.8428974533,0.2080512424,0.0133063484\C,-2.7788
 787497,1.1269526364,-0.0169479589\C,-3.3980543047,-1.1240929208,-0.002
 1748347\H,-2.110020208,1.0171409203,0.8575365845\H,-2.1582940381,1.015
 6161203,-0.9267005304\H,-3.2042359979,2.1429484068,-0.006754997\H,-4.2
 827989479,-1.7796316677,0.0302951128\H,-2.7498034176,-1.3587355337,0.8
 654283379\H,-2.8157174961,-1.3594319333,-0.9153560962\Al,1.0455455593,
 -0.0104485178,-0.0111350684\Cl,0.1750453806,-0.9792868478,-1.743867765
 4\Cl,0.1561400934,-0.8027743316,1.8010418497\Cl,0.6953951867,2.1241794
 33,-0.1198504205\Cl,3.1765443934,-0.3870170065,0.0224694381\\Version=E
 S64L-G16RevC.02\State=1-A\HF=-2238.0434564\RMSD=4.557e-09\RMSF=1.567e-
 05\Dipole=-1.1201065,-0.1272326,-0.0098025\Quadrupole=-9.2101306,5.435
 3314,3.7747992,1.6767062,0.1225399,-0.0169206\PG=C01 [X(C2H6Al1Cl4O1)]
 \\@
 The archive entry for this job was punched.


 LIFE IS SO UNCERTAIN - EAT DESSERT FIRST.
 Job cpu time:       0 days  0 hours 14 minutes 11.4 seconds.
 Elapsed time:       0 days  0 hours  2 minutes  7.0 seconds.
 File lengths (MBytes):  RWF=     83 Int=      0 D2E=      0 Chk=      6 Scr=      1
 Normal termination of Gaussian 16 at Wed Jun 24 01:13:57 2026.
