 Entering Gaussian System, Link 0=/CH/g16/g16
 Initial command:
 /CH/g16/l1.exe "/tmp/g16d3_Me2O_2884047/Gau-2884061.inp" -scrdir="/tmp/g16d3_Me2O_2884047/"
 Default is to use a total of  96 processors:
                               96 via shared-memory
                                1 via Linda
 Entering Link 1 = /CH/g16/l1.exe PID=   2884067.
  
 Copyright (c) 1988-2021, Gaussian, Inc.  All Rights Reserved.
  
 This is part of the Gaussian(R) 16 program.  It is based on
 the Gaussian(R) 09 system (copyright 2009, Gaussian, Inc.),
 the Gaussian(R) 03 system (copyright 2003, Gaussian, Inc.),
 the Gaussian(R) 98 system (copyright 1998, Gaussian, Inc.),
 the Gaussian(R) 94 system (copyright 1995, Gaussian, Inc.),
 the Gaussian 92(TM) system (copyright 1992, Gaussian, Inc.),
 the Gaussian 90(TM) system (copyright 1990, Gaussian, Inc.),
 the Gaussian 88(TM) system (copyright 1988, Gaussian, Inc.),
 the Gaussian 86(TM) system (copyright 1986, Carnegie Mellon
 University), and the Gaussian 82(TM) system (copyright 1983,
 Carnegie Mellon University). Gaussian is a federally registered
 trademark of Gaussian, Inc.
  
 This software contains proprietary and confidential information,
 including trade secrets, belonging to Gaussian, Inc.
  
 This software is provided under written license and may be
 used, copied, transmitted, or stored only in accord with that
 written license.
  
 The following legend is applicable only to US Government
 contracts under FAR:
  
                    RESTRICTED RIGHTS LEGEND
  
 Use, reproduction and disclosure by the US Government is
 subject to restrictions as set forth in subparagraphs (a)
 and (c) of the Commercial Computer Software - Restricted
 Rights clause in FAR 52.227-19.
  
 Gaussian, Inc.
 340 Quinnipiac St., Bldg. 40, Wallingford CT 06492
  
  
 ---------------------------------------------------------------
 Warning -- This program may not be used in any manner that
 competes with the business of Gaussian, Inc. or will provide
 assistance to any competitor of Gaussian, Inc.  The licensee
 of this program is prohibited from giving any competitor of
 Gaussian, Inc. access to this program.  By using this program,
 the user acknowledges that Gaussian, Inc. is engaged in the
 business of creating and licensing software in the field of
 computational chemistry and represents and warrants to the
 licensee that it is not a competitor of Gaussian, Inc. and that
 it will not use this program in any manner prohibited above.
 ---------------------------------------------------------------
  

 Cite this work as:
 Gaussian 16, Revision C.02,
 M. J. Frisch, G. W. Trucks, H. B. Schlegel, G. E. Scuseria, 
 M. A. Robb, J. R. Cheeseman, G. Scalmani, V. Barone, 
 G. A. Petersson, H. Nakatsuji, X. Li, M. Caricato, A. V. Marenich, 
 J. Bloino, B. G. Janesko, R. Gomperts, B. Mennucci, H. P. Hratchian, 
 J. V. Ortiz, A. F. Izmaylov, J. L. Sonnenberg, D. Williams-Young, 
 F. Ding, F. Lipparini, F. Egidi, J. Goings, B. Peng, A. Petrone, 
 T. Henderson, D. Ranasinghe, V. G. Zakrzewski, J. Gao, N. Rega, 
 G. Zheng, W. Liang, M. Hada, M. Ehara, K. Toyota, R. Fukuda, 
 J. Hasegawa, M. Ishida, T. Nakajima, Y. Honda, O. Kitao, H. Nakai, 
 T. Vreven, K. Throssell, J. A. Montgomery, Jr., J. E. Peralta, 
 F. Ogliaro, M. J. Bearpark, J. J. Heyd, E. N. Brothers, K. N. Kudin, 
 V. N. Staroverov, T. A. Keith, R. Kobayashi, J. Normand, 
 K. Raghavachari, A. P. Rendell, J. C. Burant, S. S. Iyengar, 
 J. Tomasi, M. Cossi, J. M. Millam, M. Klene, C. Adamo, R. Cammi, 
 J. W. Ochterski, R. L. Martin, K. Morokuma, O. Farkas, 
 J. B. Foresman, and D. J. Fox, Gaussian, Inc., Wallingford CT, 2019.
 
 ******************************************
 Gaussian 16:  ES64L-G16RevC.02  7-Dec-2021
                24-Jun-2026 
 ******************************************
 %chk=Me2O.chk
 %nprocshared=8
 Will use up to    8 processors via shared memory.
 %mem=14GB
 ----------------------------------------------------------------------
 #p B3LYP/def2SVP EmpiricalDispersion=GD3BJ opt SCRF=(SMD,Solvent=Tetra
 hydrofuran) int=ultrafine
 ----------------------------------------------------------------------
 1/18=20,19=15,26=6,38=1/1,3;
 2/9=110,12=2,17=6,18=5,40=1/2;
 3/5=43,7=101,11=2,25=1,30=1,70=32201,71=1,72=20,74=-5,75=-5,124=41/1,2,3;
 4//1;
 5/5=2,38=5,53=20/2;
 6/7=2,8=2,9=2,10=2,28=1/1;
 7//1,2,3,16;
 1/18=20,19=15,26=6/3(2);
 2/9=110/2;
 99//99;
 2/9=110/2;
 3/5=43,7=101,11=2,25=1,30=1,70=32205,71=1,72=20,74=-5,75=-5,124=41/1,2,3;
 4/5=5,16=3,69=1/1;
 5/5=2,38=5,53=20/2;
 7//1,2,3,16;
 1/18=20,19=15,26=6/3(-5);
 2/9=110/2;
 6/7=2,8=2,9=2,10=2,19=2,28=1/1;
 99/9=1/99;
 Leave Link    1 at Wed Jun 24 00:57:37 2026, MaxMem=  1879048192 cpu:               2.7 elap:               0.1
 (Enter /CH/g16/l101.exe)
 ----
 Me2O
 ----
 Symbolic Z-matrix:
 Charge =  0 Multiplicity = 1
 O                     0.        0.        0. 
 C                     1.2       0.        0.74 
 C                    -1.2       0.        0.74 
 H                     1.25      0.89      1.38 
 H                     1.25     -0.89      1.38 
 H                     2.05      0.        0.05 
 H                    -2.05      0.        0.05 
 H                    -1.25      0.89      1.38 
 H                    -1.25     -0.89      1.38 
 
 ITRead=  0  0  0  0  0  0  0  0  0
 MicOpt= -1 -1 -1 -1 -1 -1 -1 -1 -1
 NAtoms=      9 NQM=        9 NQMF=       0 NMMI=      0 NMMIF=      0
                NMic=       0 NMicF=      0.
                    Isotopes and Nuclear Properties:
 (Nuclear quadrupole moments (NQMom) in fm**2, nuclear magnetic moments (NMagM)
  in nuclear magnetons)

  Atom         1           2           3           4           5           6           7           8           9
 IAtWgt=          16          12          12           1           1           1           1           1           1
 AtmWgt=  15.9949146  12.0000000  12.0000000   1.0078250   1.0078250   1.0078250   1.0078250   1.0078250   1.0078250
 NucSpn=           0           0           0           1           1           1           1           1           1
 AtZEff=  -0.0000000  -0.0000000  -0.0000000  -0.0000000  -0.0000000  -0.0000000  -0.0000000  -0.0000000  -0.0000000
 NQMom=    0.0000000   0.0000000   0.0000000   0.0000000   0.0000000   0.0000000   0.0000000   0.0000000   0.0000000
 NMagM=    0.0000000   0.0000000   0.0000000   2.7928460   2.7928460   2.7928460   2.7928460   2.7928460   2.7928460
 AtZNuc=   8.0000000   6.0000000   6.0000000   1.0000000   1.0000000   1.0000000   1.0000000   1.0000000   1.0000000
 Leave Link  101 at Wed Jun 24 00:57:38 2026, MaxMem=  1879048192 cpu:               0.4 elap:               0.4
 (Enter /CH/g16/l103.exe)

 GradGradGradGradGradGradGradGradGradGradGradGradGradGradGradGradGradGrad
 Berny optimization.
 Initialization pass.
                           ----------------------------
                           !    Initial Parameters    !
                           ! (Angstroms and Degrees)  !
 --------------------------                            --------------------------
 ! Name  Definition              Value          Derivative Info.                !
 --------------------------------------------------------------------------------
 ! R1    R(1,2)                  1.4098         estimate D2E/DX2                !
 ! R2    R(1,3)                  1.4098         estimate D2E/DX2                !
 ! R3    R(2,4)                  1.0974         estimate D2E/DX2                !
 ! R4    R(2,5)                  1.0974         estimate D2E/DX2                !
 ! R5    R(2,6)                  1.0948         estimate D2E/DX2                !
 ! R6    R(3,7)                  1.0948         estimate D2E/DX2                !
 ! R7    R(3,8)                  1.0974         estimate D2E/DX2                !
 ! R8    R(3,9)                  1.0974         estimate D2E/DX2                !
 ! A1    A(2,1,3)              116.6785         estimate D2E/DX2                !
 ! A2    A(1,2,4)              110.1761         estimate D2E/DX2                !
 ! A3    A(1,2,5)              110.1761         estimate D2E/DX2                !
 ! A4    A(1,2,6)              109.2708         estimate D2E/DX2                !
 ! A5    A(4,2,5)              108.3948         estimate D2E/DX2                !
 ! A6    A(4,2,6)              109.4022         estimate D2E/DX2                !
 ! A7    A(5,2,6)              109.4022         estimate D2E/DX2                !
 ! A8    A(1,3,7)              109.2708         estimate D2E/DX2                !
 ! A9    A(1,3,8)              110.1761         estimate D2E/DX2                !
 ! A10   A(1,3,9)              110.1761         estimate D2E/DX2                !
 ! A11   A(7,3,8)              109.4022         estimate D2E/DX2                !
 ! A12   A(7,3,9)              109.4022         estimate D2E/DX2                !
 ! A13   A(8,3,9)              108.3948         estimate D2E/DX2                !
 ! D1    D(3,1,2,4)            -59.7754         estimate D2E/DX2                !
 ! D2    D(3,1,2,5)             59.7754         estimate D2E/DX2                !
 ! D3    D(3,1,2,6)            180.0            estimate D2E/DX2                !
 ! D4    D(2,1,3,7)            180.0            estimate D2E/DX2                !
 ! D5    D(2,1,3,8)             59.7754         estimate D2E/DX2                !
 ! D6    D(2,1,3,9)            -59.7754         estimate D2E/DX2                !
 --------------------------------------------------------------------------------
 Trust Radius=3.00D-01 FncErr=5.00D-06 GrdErr=5.00D-06 EigMax=2.50D+02 EigMin=1.00D-04
 Number of steps in this run=     37 maximum allowed number of steps=    100.
 GradGradGradGradGradGradGradGradGradGradGradGradGradGradGradGradGradGrad

 Leave Link  103 at Wed Jun 24 00:57:38 2026, MaxMem=  1879048192 cpu:               0.0 elap:               0.0
 (Enter /CH/g16/l202.exe)
                          Input orientation:                          
 ---------------------------------------------------------------------
 Center     Atomic      Atomic             Coordinates (Angstroms)
 Number     Number       Type             X           Y           Z
 ---------------------------------------------------------------------
      1          8           0        0.000000    0.000000    0.000000
      2          6           0        1.200000    0.000000    0.740000
      3          6           0       -1.200000    0.000000    0.740000
      4          1           0        1.250000    0.890000    1.380000
      5          1           0        1.250000   -0.890000    1.380000
      6          1           0        2.050000    0.000000    0.050000
      7          1           0       -2.050000    0.000000    0.050000
      8          1           0       -1.250000    0.890000    1.380000
      9          1           0       -1.250000   -0.890000    1.380000
 ---------------------------------------------------------------------
                    Distance matrix (angstroms):
                    1          2          3          4          5
     1  O    0.000000
     2  C    1.409823   0.000000
     3  C    1.409823   2.400000   0.000000
     4  H    2.063734   1.097360   2.684064   0.000000
     5  H    2.063734   1.097360   2.684064   1.780000   0.000000
     6  H    2.050610   1.094806   3.322439   1.789134   1.789134
     7  H    2.050610   3.322439   1.094806   3.667560   3.667560
     8  H    2.063734   2.684064   1.097360   2.500000   3.068941
     9  H    2.063734   2.684064   1.097360   3.068941   2.500000
                    6          7          8          9
     6  H    0.000000
     7  H    4.100000   0.000000
     8  H    3.667560   1.789134   0.000000
     9  H    3.667560   1.789134   1.780000   0.000000
 Stoichiometry    C2H6O
 Framework group  C2V[C2(O),SGV(C2H2),X(H4)]
 Deg. of freedom     7
 Full point group                 C2V     NOp   4
 Largest Abelian subgroup         C2V     NOp   4
 Largest concise Abelian subgroup C2V     NOp   4
                         Standard orientation:                         
 ---------------------------------------------------------------------
 Center     Atomic      Atomic             Coordinates (Angstroms)
 Number     Number       Type             X           Y           Z
 ---------------------------------------------------------------------
      1          8           0        0.000000   -0.000000    0.557692
      2          6           0        0.000000    1.200000   -0.182308
      3          6           0       -0.000000   -1.200000   -0.182308
      4          1           0        0.890000    1.250000   -0.822308
      5          1           0       -0.890000    1.250000   -0.822308
      6          1           0        0.000000    2.050000    0.507692
      7          1           0       -0.000000   -2.050000    0.507692
      8          1           0        0.890000   -1.250000   -0.822308
      9          1           0       -0.890000   -1.250000   -0.822308
 ---------------------------------------------------------------------
 Rotational constants (GHZ):          41.7640946           9.6220755           8.6779288
 Leave Link  202 at Wed Jun 24 00:57:38 2026, MaxMem=  1879048192 cpu:               0.0 elap:               0.0
 (Enter /CH/g16/l301.exe)
 Standard basis: def2SVP (5D, 7F)
 Ernie: Thresh=  0.10000D-02 Tol=  0.10000D-05 Strict=F.
 There are    28 symmetry adapted cartesian basis functions of A1  symmetry.
 There are    11 symmetry adapted cartesian basis functions of A2  symmetry.
 There are    13 symmetry adapted cartesian basis functions of B1  symmetry.
 There are    23 symmetry adapted cartesian basis functions of B2  symmetry.
 There are    26 symmetry adapted basis functions of A1  symmetry.
 There are    11 symmetry adapted basis functions of A2  symmetry.
 There are    13 symmetry adapted basis functions of B1  symmetry.
 There are    22 symmetry adapted basis functions of B2  symmetry.
    72 basis functions,   117 primitive gaussians,    75 cartesian basis functions
    13 alpha electrons       13 beta electrons
       nuclear repulsion energy        83.5743465922 Hartrees.
 IExCor=  402 DFT=T Ex+Corr=B3LYP ExCW=0 ScaHFX=  0.200000
 ScaDFX=  0.800000  0.720000  1.000000  0.810000 ScalE2=  1.000000  1.000000
 IRadAn=      5 IRanWt=     -1 IRanGd=            0 ICorTp=0 IEmpDi=141
 NAtoms=    9 NActive=    9 NUniq=    4 SFac= 4.00D+00 NAtFMM=   60 NAOKFM=F Big=F
 Integral buffers will be    131072 words long.
 Raffenetti 2 integral format.
 Two-electron integral symmetry is turned on.
 R6Disp:  Grimme-D3(BJ) Dispersion energy=       -0.0067158089 Hartrees.
 Nuclear repulsion after empirical dispersion term =       83.5676307833 Hartrees.
 ------------------------------------------------------------------------------
 Polarizable Continuum Model (PCM)
 =================================
 Model                : PCM.
 Atomic radii         : SMD-Coulomb.
 Polarization charges : Total charges.
 Charge compensation  : None.
 Solution method      : On-the-fly selection.
 Cavity type          : VdW (van der Waals Surface) (Alpha=1.000).
 Cavity algorithm     : GePol (No added spheres)
                        Default sphere list used, NSphG=    9.
                        Lebedev-Laikov grids with approx.  5.0 points / Ang**2.
                        Smoothing algorithm: York/Karplus (Gamma=1.0000).
                        Polarization charges: spherical gaussians, with
                                              point-specific exponents (IZeta= 3).
                        Self-potential: point-specific (ISelfS= 7).
                        Self-field    : sphere-specific E.n sum rule (ISelfD= 2).
 1st derivatives      : Analytical E(r).r(x)/FMM algorithm (CHGder, D1EAlg=3).
                        Cavity 1st derivative terms included.
 Solvent              : TetraHydroFuran, Eps=   7.425700 Eps(inf)=   1.974025
 ------------------------------------------------------------------------------
 Spheres list:
 ISph  on   Nord     Re0    Alpha      Xe            Ye            Ze
    1   O      1    2.2940  1.000      0.000000     -0.000000      0.557692
    2   C      2    1.8500  1.000      0.000000      1.200000     -0.182308
    3   C      3    1.8500  1.000     -0.000000     -1.200000     -0.182308
    4   H      4    1.2000  1.000      0.890000      1.250000     -0.822308
    5   H      5    1.2000  1.000     -0.890000      1.250000     -0.822308
    6   H      6    1.2000  1.000     -0.000000      2.050000      0.507692
    7   H      7    1.2000  1.000     -0.000000     -2.050000      0.507692
    8   H      8    1.2000  1.000      0.890000     -1.250000     -0.822308
    9   H      9    1.2000  1.000     -0.890000     -1.250000     -0.822308
 ------------------------------------------------------------------------------
 GePol: Number of generator spheres                  =       9
 GePol: Total number of spheres                      =       9
 GePol: Number of exposed spheres                    =       9 (100.00%)
 GePol: Number of points                             =     754
 GePol: Average weight of points                     =       0.12
 GePol: Minimum weight of points                     =   0.10D-04
 GePol: Maximum weight of points                     =    0.17992
 GePol: Number of points with low weight             =      36
 GePol: Fraction of low-weight points (<1% of avg)   =       4.77%
 GePol: Cavity surface area                          =     91.893 Ang**2
 GePol: Cavity volume                                =     73.809 Ang**3
 ------------------------------------------------------------------------------
 Atomic radii for non-electrostatic terms: SMD-CDS.
 ------------------------------------------------------------------------------
 PCM non-electrostatic energy =         0.0009288804 Hartrees.
 Nuclear repulsion after PCM non-electrostatic terms =       83.5685596638 Hartrees.
 Leave Link  301 at Wed Jun 24 00:57:38 2026, MaxMem=  1879048192 cpu:               0.0 elap:               0.0
 (Enter /CH/g16/l302.exe)
 NPDir=0 NMtPBC=     1 NCelOv=     1 NCel=       1 NClECP=     1 NCelD=      1
         NCelK=      1 NCelE2=     1 NClLst=     1 CellRange=     0.0.
 One-electron integrals computed using PRISM.
 One-electron integral symmetry used in STVInt
   4 Symmetry operations used in ECPInt.
 ECPInt:  NShTT=     666 NPrTT=    2268 LenC2=     667 LenP2D=    2063.
 LDataN:  DoStor=T MaxTD1= 4 Len=   56
 NBasis=    72 RedAO= T EigKep=  9.26D-03  NBF=    26    11    13    22
 NBsUse=    72 1.00D-06 EigRej= -1.00D+00 NBFU=    26    11    13    22
 Precomputing XC quadrature grid using
 IXCGrd= 4 IRadAn=           5 IRanWt=          -1 IRanGd=           0 AccXCQ= 0.00D+00.
 Generated NRdTot=       0 NPtTot=           0 NUsed=           0 NTot=          32
 NSgBfM=    75    75    75    75    75 MxSgAt=     9 MxSgA2=     9.
 Leave Link  302 at Wed Jun 24 00:57:38 2026, MaxMem=  1879048192 cpu:               0.3 elap:               0.1
 (Enter /CH/g16/l303.exe)
 DipDrv:  MaxL=1.
 Leave Link  303 at Wed Jun 24 00:57:38 2026, MaxMem=  1879048192 cpu:               0.0 elap:               0.0
 (Enter /CH/g16/l401.exe)
 ExpMin= 1.22D-01 ExpMax= 2.27D+03 ExpMxC= 3.41D+02 IAcc=3 IRadAn=         5 AccDes= 0.00D+00
 Harris functional with IExCor=  402 and IRadAn=       5 diagonalized for initial guess.
 HarFok:  IExCor=  402 AccDes= 0.00D+00 IRadAn=         5 IDoV= 1 UseB2=F ITyADJ=14
 ICtDFT=  3500011 ScaDFX=  1.000000  1.000000  1.000000  1.000000
 FoFCou: FMM=F IPFlag=           0 FMFlag=      100000 FMFlg1=           0
         NFxFlg=           0 DoJE=T BraDBF=F KetDBF=T FulRan=T
         wScrn=  0.000000 ICntrl=       500 IOpCl=  0 I1Cent=   200000004 NGrid=           0
         NMat0=    1 NMatS0=      1 NMatT0=    0 NMatD0=    1 NMtDS0=    0 NMtDT0=    0
 Petite list used in FoFCou.
 Harris En= -154.929816263655    
 JPrj=0 DoOrth=F DoCkMO=F.
 Initial guess orbital symmetries:
       Occupied  (A1) (A1) (B2) (A1) (B2) (A1) (B2) (A1) (B1) (A2)
                 (B2) (A1) (B1)
       Virtual   (A1) (A1) (B2) (A1) (B1) (B2) (A2) (B2) (A1) (B2)
                 (A2) (A1) (B1) (B2) (A1) (B1) (B2) (A1) (A2) (A1)
                 (B2) (B2) (A1) (B1) (A2) (B2) (A1) (B1) (B2) (B1)
                 (A2) (A1) (A2) (A1) (B1) (B2) (B2) (A1) (A1) (A2)
                 (B1) (B2) (B2) (A1) (B1) (A2) (A1) (B2) (A1) (B2)
                 (A1) (A2) (B1) (B2) (B1) (A2) (A1) (A1) (B2)
 The electronic state of the initial guess is 1-A1.
 Leave Link  401 at Wed Jun 24 00:57:38 2026, MaxMem=  1879048192 cpu:               0.5 elap:               0.1
 (Enter /CH/g16/l502.exe)
 Keep R1 ints in memory in symmetry-blocked form, NReq=10644973.
 FoFCou: FMM=F IPFlag=           0 FMFlag=           0 FMFlg1=           0
         NFxFlg=           0 DoJE=F BraDBF=F KetDBF=F FulRan=T
         wScrn=  0.000000 ICntrl=       600 IOpCl=  0 I1Cent=           0 NGrid=           0
         NMat0=    1 NMatS0=   2628 NMatT0=    0 NMatD0=    1 NMtDS0=    0 NMtDT0=    0
 Petite list used in FoFCou.
 Closed shell SCF:
 Using DIIS extrapolation, IDIIS=  1040.
 NGot=  1879048192 LenX=  1878149604 LenY=  1878143538
 Requested convergence on RMS density matrix=1.00D-08 within 128 cycles.
 Requested convergence on MAX density matrix=1.00D-06.
 Requested convergence on             energy=1.00D-06.
 No special actions if energy rises.

 Cycle   1  Pass 1  IDiag  1:
 Inv3:  Mode=1 IEnd=     1705548.
 Iteration    1 A*A^-1 deviation from unit magnitude is 3.89D-15 for    237.
 Iteration    1 A*A^-1 deviation from orthogonality  is 1.42D-15 for    375    174.
 Iteration    1 A^-1*A deviation from unit magnitude is 2.78D-15 for    237.
 Iteration    1 A^-1*A deviation from orthogonality  is 1.41D-15 for    428    123.
 E= -154.837442599922    
 DIIS: error= 3.04D-02 at cycle   1 NSaved=   1.
 NSaved= 1 IEnMin= 1 EnMin= -154.837442599922     IErMin= 1 ErrMin= 3.04D-02
 ErrMax= 3.04D-02  0.00D+00 EMaxC= 1.00D-01 BMatC= 7.25D-02 BMatP= 7.25D-02
 IDIUse=3 WtCom= 6.96D-01 WtEn= 3.04D-01
 Coeff-Com:  0.100D+01
 Coeff-En:   0.100D+01
 Coeff:      0.100D+01
 Gap=     0.283 Goal=   None    Shift=    0.000
 GapD=    0.283 DampG=1.000 DampE=0.500 DampFc=0.5000 IDamp=-1.
 Damping current iteration by 5.00D-01
 RMSDP=8.54D-03 MaxDP=1.03D-01              OVMax= 1.40D-01

 Cycle   2  Pass 1  IDiag  1:
 E= -154.873890665460     Delta-E=       -0.036448065538 Rises=F Damp=T
 DIIS: error= 7.69D-03 at cycle   2 NSaved=   2.
 NSaved= 2 IEnMin= 2 EnMin= -154.873890665460     IErMin= 2 ErrMin= 7.69D-03
 ErrMax= 7.69D-03  0.00D+00 EMaxC= 1.00D-01 BMatC= 3.56D-03 BMatP= 7.25D-02
 IDIUse=3 WtCom= 9.23D-01 WtEn= 7.69D-02
 Coeff-Com:  0.545D-01 0.946D+00
 Coeff-En:   0.530D-01 0.947D+00
 Coeff:      0.543D-01 0.946D+00
 Gap=     0.326 Goal=   None    Shift=    0.000
 RMSDP=1.42D-03 MaxDP=1.28D-02 DE=-3.64D-02 OVMax= 8.58D-02

 Cycle   3  Pass 1  IDiag  1:
 E= -154.915010571289     Delta-E=       -0.041119905829 Rises=F Damp=F
 DIIS: error= 4.63D-03 at cycle   3 NSaved=   3.
 NSaved= 3 IEnMin= 3 EnMin= -154.915010571289     IErMin= 3 ErrMin= 4.63D-03
 ErrMax= 4.63D-03  0.00D+00 EMaxC= 1.00D-01 BMatC= 1.87D-03 BMatP= 3.56D-03
 IDIUse=3 WtCom= 9.54D-01 WtEn= 4.63D-02
 Coeff-Com: -0.120D-01 0.402D+00 0.610D+00
 Coeff-En:   0.000D+00 0.000D+00 0.100D+01
 Coeff:     -0.115D-01 0.383D+00 0.628D+00
 Gap=     0.311 Goal=   None    Shift=    0.000
 RMSDP=5.67D-04 MaxDP=1.15D-02 DE=-4.11D-02 OVMax= 1.28D-02

 Cycle   4  Pass 1  IDiag  1:
 E= -154.916076514989     Delta-E=       -0.001065943701 Rises=F Damp=F
 DIIS: error= 2.24D-03 at cycle   4 NSaved=   4.
 NSaved= 4 IEnMin= 4 EnMin= -154.916076514989     IErMin= 4 ErrMin= 2.24D-03
 ErrMax= 2.24D-03  0.00D+00 EMaxC= 1.00D-01 BMatC= 4.55D-04 BMatP= 1.87D-03
 IDIUse=3 WtCom= 9.78D-01 WtEn= 2.24D-02
 Coeff-Com: -0.874D-02 0.104D+00 0.346D+00 0.558D+00
 Coeff-En:   0.000D+00 0.000D+00 0.191D+00 0.809D+00
 Coeff:     -0.855D-02 0.102D+00 0.343D+00 0.564D+00
 Gap=     0.314 Goal=   None    Shift=    0.000
 RMSDP=2.11D-04 MaxDP=4.07D-03 DE=-1.07D-03 OVMax= 4.09D-03

 Cycle   5  Pass 1  IDiag  1:
 E= -154.916419060409     Delta-E=       -0.000342545419 Rises=F Damp=F
 DIIS: error= 2.37D-04 at cycle   5 NSaved=   5.
 NSaved= 5 IEnMin= 5 EnMin= -154.916419060409     IErMin= 5 ErrMin= 2.37D-04
 ErrMax= 2.37D-04  0.00D+00 EMaxC= 1.00D-01 BMatC= 5.19D-06 BMatP= 4.55D-04
 IDIUse=3 WtCom= 9.98D-01 WtEn= 2.37D-03
 Coeff-Com: -0.752D-03 0.257D-03 0.464D-01 0.149D+00 0.805D+00
 Coeff-En:   0.000D+00 0.000D+00 0.000D+00 0.000D+00 0.100D+01
 Coeff:     -0.750D-03 0.257D-03 0.462D-01 0.149D+00 0.806D+00
 Gap=     0.314 Goal=   None    Shift=    0.000
 RMSDP=2.22D-05 MaxDP=3.42D-04 DE=-3.43D-04 OVMax= 4.97D-04

 Cycle   6  Pass 1  IDiag  1:
 E= -154.916423135091     Delta-E=       -0.000004074682 Rises=F Damp=F
 DIIS: error= 1.28D-05 at cycle   6 NSaved=   6.
 NSaved= 6 IEnMin= 6 EnMin= -154.916423135091     IErMin= 6 ErrMin= 1.28D-05
 ErrMax= 1.28D-05  0.00D+00 EMaxC= 1.00D-01 BMatC= 1.27D-08 BMatP= 5.19D-06
 IDIUse=1 WtCom= 1.00D+00 WtEn= 0.00D+00
 Coeff-Com:  0.459D-04-0.868D-03 0.370D-02 0.150D-01 0.112D+00 0.870D+00
 Coeff:      0.459D-04-0.868D-03 0.370D-02 0.150D-01 0.112D+00 0.870D+00
 Gap=     0.314 Goal=   None    Shift=    0.000
 RMSDP=2.18D-06 MaxDP=2.16D-05 DE=-4.07D-06 OVMax= 3.77D-05

 Cycle   7  Pass 1  IDiag  1:
 E= -154.916423148053     Delta-E=       -0.000000012963 Rises=F Damp=F
 DIIS: error= 2.58D-06 at cycle   7 NSaved=   7.
 NSaved= 7 IEnMin= 7 EnMin= -154.916423148053     IErMin= 7 ErrMin= 2.58D-06
 ErrMax= 2.58D-06  0.00D+00 EMaxC= 1.00D-01 BMatC= 3.74D-10 BMatP= 1.27D-08
 IDIUse=1 WtCom= 1.00D+00 WtEn= 0.00D+00
 Coeff-Com:  0.233D-04-0.116D-03-0.692D-03-0.160D-02-0.477D-02 0.142D+00
 Coeff-Com:  0.866D+00
 Coeff:      0.233D-04-0.116D-03-0.692D-03-0.160D-02-0.477D-02 0.142D+00
 Coeff:      0.866D+00
 Gap=     0.314 Goal=   None    Shift=    0.000
 RMSDP=2.49D-07 MaxDP=3.28D-06 DE=-1.30D-08 OVMax= 5.51D-06

 Cycle   8  Pass 1  IDiag  1:
 E= -154.916423148446     Delta-E=       -0.000000000393 Rises=F Damp=F
 DIIS: error= 1.56D-07 at cycle   8 NSaved=   8.
 NSaved= 8 IEnMin= 8 EnMin= -154.916423148446     IErMin= 8 ErrMin= 1.56D-07
 ErrMax= 1.56D-07  0.00D+00 EMaxC= 1.00D-01 BMatC= 1.85D-12 BMatP= 3.74D-10
 IDIUse=1 WtCom= 1.00D+00 WtEn= 0.00D+00
 Coeff-Com: -0.748D-06 0.106D-04-0.692D-04-0.199D-03-0.152D-02-0.556D-02
 Coeff-Com:  0.147D-01 0.993D+00
 Coeff:     -0.748D-06 0.106D-04-0.692D-04-0.199D-03-0.152D-02-0.556D-02
 Coeff:      0.147D-01 0.993D+00
 Gap=     0.314 Goal=   None    Shift=    0.000
 RMSDP=2.44D-08 MaxDP=4.47D-07 DE=-3.93D-10 OVMax= 5.30D-07

 Cycle   9  Pass 1  IDiag  1:
 E= -154.916423148448     Delta-E=       -0.000000000002 Rises=F Damp=F
 DIIS: error= 1.48D-08 at cycle   9 NSaved=   9.
 NSaved= 9 IEnMin= 9 EnMin= -154.916423148448     IErMin= 9 ErrMin= 1.48D-08
 ErrMax= 1.48D-08  0.00D+00 EMaxC= 1.00D-01 BMatC= 1.13D-14 BMatP= 1.85D-12
 IDIUse=1 WtCom= 1.00D+00 WtEn= 0.00D+00
 Coeff-Com: -0.329D-06 0.648D-06 0.331D-05 0.435D-05 0.262D-04-0.487D-03
 Coeff-Com: -0.290D-02-0.780D-02 0.101D+01
 Coeff:     -0.329D-06 0.648D-06 0.331D-05 0.435D-05 0.262D-04-0.487D-03
 Coeff:     -0.290D-02-0.780D-02 0.101D+01
 Gap=     0.314 Goal=   None    Shift=    0.000
 RMSDP=1.96D-09 MaxDP=2.42D-08 DE=-2.16D-12 OVMax= 3.50D-08

 Error on total polarization charges =  0.02185
 SCF Done:  E(RB3LYP) =  -154.916423148     A.U. after    9 cycles
            NFock=  9  Conv=0.20D-08     -V/T= 2.0101
 KE= 1.533620212250D+02 PE=-5.284206854618D+02 EE= 1.365736814247D+02
 SMD-CDS (non-electrostatic) energy       (kcal/mol) =       0.58
 (included in total energy above)
 Leave Link  502 at Wed Jun 24 00:57:39 2026, MaxMem=  1879048192 cpu:               5.1 elap:               0.8
 (Enter /CH/g16/l601.exe)
 Copying SCF densities to generalized density rwf, IOpCl= 0 IROHF=0.

 **********************************************************************

            Population analysis using the SCF Density.

 **********************************************************************

 Orbital symmetries:
       Occupied  (A1) (A1) (B2) (A1) (B2) (A1) (B2) (A1) (B1) (A2)
                 (B2) (A1) (B1)
       Virtual   (A1) (B2) (A1) (B1) (A1) (B2) (A2) (B2) (A1) (A2)
                 (B2) (B1) (A1) (B2) (A1) (B1) (B2) (A1) (B2) (A1)
                 (A2) (B2) (A1) (B1) (A2) (B2) (A1) (B1) (B2) (B1)
                 (A2) (A1) (A2) (A1) (B1) (B2) (B2) (A1) (A1) (A2)
                 (B1) (B2) (B2) (A1) (B1) (A2) (A1) (B2) (A1) (B2)
                 (A1) (A2) (B2) (B1) (B1) (A1) (A2) (A1) (B2)
 The electronic state is 1-A1.
 Alpha  occ. eigenvalues --  -19.11784 -10.21882 -10.21881  -1.00747  -0.70898
 Alpha  occ. eigenvalues --   -0.61796  -0.46867  -0.46104  -0.46057  -0.38875
 Alpha  occ. eigenvalues --   -0.37730  -0.30035  -0.24536
 Alpha virt. eigenvalues --    0.06853   0.11369   0.12396   0.13522   0.14104
 Alpha virt. eigenvalues --    0.15877   0.17126   0.24165   0.42260   0.45934
 Alpha virt. eigenvalues --    0.46929   0.47689   0.49227   0.62569   0.64017
 Alpha virt. eigenvalues --    0.64504   0.66236   0.67161   0.68346   0.68948
 Alpha virt. eigenvalues --    0.69223   0.87658   0.95605   0.98711   1.18999
 Alpha virt. eigenvalues --    1.19275   1.26768   1.36250   1.48196   1.52859
 Alpha virt. eigenvalues --    1.53324   1.55610   1.69773   1.73323   1.74337
 Alpha virt. eigenvalues --    1.77418   1.82650   1.83946   1.84491   1.87290
 Alpha virt. eigenvalues --    1.94404   2.02719   2.18664   2.20734   2.30752
 Alpha virt. eigenvalues --    2.34831   2.37374   2.43817   2.66442   2.68191
 Alpha virt. eigenvalues --    2.76138   2.81939   2.87003   2.87077   2.92637
 Alpha virt. eigenvalues --    3.13094   3.13213   3.33979   3.47857
          Condensed to atoms (all electrons):
               1          2          3          4          5          6
     1  O    7.965228   0.330936   0.330936  -0.037156  -0.037156  -0.025345
     2  C    0.330936   4.355500  -0.037663   0.385404   0.385404   0.396664
     3  C    0.330936  -0.037663   4.355500  -0.004654  -0.004654   0.006332
     4  H   -0.037156   0.385404  -0.004654   0.720264  -0.044698  -0.029392
     5  H   -0.037156   0.385404  -0.004654  -0.044698   0.720264  -0.029392
     6  H   -0.025345   0.396664   0.006332  -0.029392  -0.029392   0.652542
     7  H   -0.025345   0.006332   0.396664  -0.000247  -0.000247  -0.000431
     8  H   -0.037156  -0.004654   0.385404   0.016816  -0.005160  -0.000247
     9  H   -0.037156  -0.004654   0.385404  -0.005160   0.016816  -0.000247
               7          8          9
     1  O   -0.025345  -0.037156  -0.037156
     2  C    0.006332  -0.004654  -0.004654
     3  C    0.396664   0.385404   0.385404
     4  H   -0.000247   0.016816  -0.005160
     5  H   -0.000247  -0.005160   0.016816
     6  H   -0.000431  -0.000247  -0.000247
     7  H    0.652542  -0.029392  -0.029392
     8  H   -0.029392   0.720264  -0.044698
     9  H   -0.029392  -0.044698   0.720264
 Mulliken charges:
               1
     1  O   -0.427787
     2  C    0.186731
     3  C    0.186731
     4  H   -0.001177
     5  H   -0.001177
     6  H    0.029517
     7  H    0.029517
     8  H   -0.001177
     9  H   -0.001177
 Sum of Mulliken charges =   0.00000
 Mulliken charges with hydrogens summed into heavy atoms:
               1
     1  O   -0.427787
     2  C    0.213894
     3  C    0.213894
 Electronic spatial extent (au):  <R**2>=            190.1531
 Charge=             -0.0000 electrons
 Dipole moment (field-independent basis, Debye):
    X=             -0.0000    Y=             -0.0000    Z=             -1.4201  Tot=              1.4201
 Quadrupole moment (field-independent basis, Debye-Ang):
   XX=            -20.0811   YY=            -16.7529   ZZ=            -20.9852
   XY=              0.0000   XZ=              0.0000   YZ=             -0.0000
 Traceless Quadrupole moment (field-independent basis, Debye-Ang):
   XX=             -0.8080   YY=              2.5201   ZZ=             -1.7121
   XY=              0.0000   XZ=              0.0000   YZ=             -0.0000
 Octapole moment (field-independent basis, Debye-Ang**2):
  XXX=              0.0000  YYY=              0.0000  ZZZ=              1.5875  XYY=             -0.0000
  XXY=              0.0000  XXZ=              0.0535  XZZ=              0.0000  YZZ=             -0.0000
  YYZ=              2.2220  XYZ=              0.0000
 Hexadecapole moment (field-independent basis, Debye-Ang**3):
 XXXX=            -33.9330 YYYY=           -162.7360 ZZZZ=            -47.4503 XXXY=             -0.0000
 XXXZ=             -0.0000 YYYX=             -0.0000 YYYZ=             -0.0000 ZZZX=             -0.0000
 ZZZY=             -0.0000 XXYY=            -35.0259 XXZZ=            -12.9867 YYZZ=            -34.6979
 XXYZ=             -0.0000 YYXZ=              0.0000 ZZXY=             -0.0000
 N-N= 8.356855966378D+01 E-N=-5.284206848422D+02  KE= 1.533620212250D+02
 Symmetry A1   KE= 1.042387666007D+02
 Symmetry A2   KE= 2.080177754442D+00
 Symmetry B1   KE= 6.579120756073D+00
 Symmetry B2   KE= 4.046395611376D+01
 No NMR shielding tensors so no spin-rotation constants.
 Leave Link  601 at Wed Jun 24 00:57:39 2026, MaxMem=  1879048192 cpu:               0.3 elap:               0.1
 (Enter /CH/g16/l701.exe)
 ... and contract with generalized density number  0.
 Compute integral first derivatives.
 R6Disp: Adding Grimme-D3(BJ) dispersion energy 1st derivatives to the gradient.
   4 Symmetry operations used in ECPInt.
 ECPInt:  NShTT=     666 NPrTT=    2268 LenC2=     667 LenP2D=    2063.
 LDataN:  DoStor=T MaxTD1= 5 Len=  102
 D1PCM: PCM CHGder 1st derivatives, ID1Alg=3 FixD1E=F DoIter=F DoCFld=F I1PDM=0.
 GePol: Maximum number of non-zero 1st derivatives   =     348
 Leave Link  701 at Wed Jun 24 00:57:39 2026, MaxMem=  1879048192 cpu:               1.4 elap:               0.2
 (Enter /CH/g16/l702.exe)
 L702 exits ... SP integral derivatives will be done elsewhere.
 Leave Link  702 at Wed Jun 24 00:57:39 2026, MaxMem=  1879048192 cpu:               0.0 elap:               0.0
 (Enter /CH/g16/l703.exe)
 Integral derivatives from FoFJK, PRISM(SPDF).
 Compute integral first derivatives, UseDBF=F ICtDFT=           0.
 Calling FoFJK, ICntrl=      2127 FMM=F ISym2X=1 I1Cent= 0 IOpClX= 0 NMat=1 NMatS=1 NMatT=0.
 FoFJK:  IHMeth= 1 ICntrl=    2127 DoSepK=F KAlg= 0 I1Cent=           0 FoldK=F
 IRaf=         0 NMat=       1 IRICut=       1 DoRegI=T DoRafI=F ISym2E= 1 IDoP0=0 IntGTp=1.
 FoFCou: FMM=F IPFlag=           0 FMFlag=      100000 FMFlg1=         800
         NFxFlg=           0 DoJE=F BraDBF=F KetDBF=F FulRan=T
         wScrn=  0.000000 ICntrl=      2127 IOpCl=  0 I1Cent=           0 NGrid=           0
         NMat0=    1 NMatS0=      1 NMatT0=    0 NMatD0=    1 NMtDS0=    0 NMtDT0=    0
 Petite list used in FoFCou.
 Leave Link  703 at Wed Jun 24 00:57:39 2026, MaxMem=  1879048192 cpu:               0.7 elap:               0.1
 (Enter /CH/g16/l716.exe)
 Dipole        =-2.22044605D-16 0.00000000D+00-5.58692585D-01
 ***** Axes restored to original set *****
 -------------------------------------------------------------------
 Center     Atomic                   Forces (Hartrees/Bohr)
 Number     Number              X              Y              Z
 -------------------------------------------------------------------
      1        8          -0.000000000   -0.000000000   -0.015861829
      2        6          -0.020731013    0.000000000    0.000077716
      3        6           0.020731013    0.000000000    0.000077716
      4        1           0.004340631    0.005545358    0.005708717
      5        1           0.004340631   -0.005545358    0.005708717
      6        1           0.001183864    0.000000000   -0.003564236
      7        1          -0.001183864    0.000000000   -0.003564236
      8        1          -0.004340631    0.005545358    0.005708717
      9        1          -0.004340631   -0.005545358    0.005708717
 -------------------------------------------------------------------
 Cartesian Forces:  Max     0.020731013 RMS     0.007373868
 Leave Link  716 at Wed Jun 24 00:57:39 2026, MaxMem=  1879048192 cpu:               0.0 elap:               0.0
 (Enter /CH/g16/l103.exe)

 GradGradGradGradGradGradGradGradGradGradGradGradGradGradGradGradGradGrad
 Berny optimization.
 FormGI is forming the generalized inverse of G from B-inverse, IUseBI=4.
 Internal  Forces:  Max     0.019577531 RMS     0.006050603
 Search for a local minimum.
 Step number   1 out of a maximum of   37
 All quantities printed in internal units (Hartrees-Bohrs-Radians)
 RMS Force = .60506D-02 SwitMx=.10000D-02 MixMth= 1
 Mixed Optimization -- RFO/linear search
 Second derivative matrix not updated -- first step.
 ITU=  0
     Eigenvalues ---    0.01562   0.01562   0.10349   0.10349   0.10400
     Eigenvalues ---    0.10400   0.16000   0.16000   0.16000   0.16000
     Eigenvalues ---    0.16000   0.16000   0.25000   0.33976   0.33976
     Eigenvalues ---    0.33976   0.33976   0.34263   0.34263   0.44031
     Eigenvalues ---    0.44031
 RFO step:  Lambda=-4.25115706D-03 EMin= 1.56184511D-02
 Linear search not attempted -- first point.
 Iteration  1 RMS(Cart)=  0.03045638 RMS(Int)=  0.00080643
 Iteration  2 RMS(Cart)=  0.00085301 RMS(Int)=  0.00052805
 Iteration  3 RMS(Cart)=  0.00000006 RMS(Int)=  0.00052805
 ITry= 1 IFail=0 DXMaxC= 7.72D-02 DCOld= 1.00D+10 DXMaxT= 3.00D-01 DXLimC= 3.00D+00 Rises=F
 ClnCor:  largest displacement from symmetrization is 2.79D-13 for atom     5.
 Variable       Old X    -DE/DX   Delta X   Delta X   Delta X     New X
                                 (Linear)    (Quad)   (Total)
    R1        2.66418  -0.00509   0.00000  -0.01144  -0.01144   2.65274
    R2        2.66418  -0.00509   0.00000  -0.01144  -0.01144   2.65274
    R3        2.07371   0.00802   0.00000   0.02333   0.02333   2.09704
    R4        2.07371   0.00802   0.00000   0.02333   0.02333   2.09704
    R5        2.06888   0.00317   0.00000   0.00913   0.00913   2.07801
    R6        2.06888   0.00317   0.00000   0.00913   0.00913   2.07801
    R7        2.07371   0.00802   0.00000   0.02333   0.02333   2.09704
    R8        2.07371   0.00802   0.00000   0.02333   0.02333   2.09704
    A1        2.03642  -0.01958   0.00000  -0.07700  -0.07700   1.95942
    A2        1.92294   0.00625   0.00000   0.04023   0.03971   1.96264
    A3        1.92294   0.00625   0.00000   0.04023   0.03971   1.96264
    A4        1.90713  -0.00599   0.00000  -0.04082  -0.04062   1.86651
    A5        1.89185  -0.00300   0.00000  -0.00978  -0.01086   1.88098
    A6        1.90943  -0.00177   0.00000  -0.01505  -0.01486   1.89457
    A7        1.90943  -0.00177   0.00000  -0.01505  -0.01486   1.89457
    A8        1.90713  -0.00599   0.00000  -0.04082  -0.04062   1.86651
    A9        1.92294   0.00625   0.00000   0.04023   0.03971   1.96264
   A10        1.92294   0.00625   0.00000   0.04023   0.03971   1.96264
   A11        1.90943  -0.00177   0.00000  -0.01505  -0.01486   1.89457
   A12        1.90943  -0.00177   0.00000  -0.01505  -0.01486   1.89457
   A13        1.89185  -0.00300   0.00000  -0.00978  -0.01086   1.88098
    D1       -1.04328  -0.00208   0.00000  -0.01932  -0.02030  -1.06358
    D2        1.04328   0.00208   0.00000   0.01932   0.02030   1.06358
    D3        3.14159   0.00000   0.00000   0.00000   0.00000   3.14159
    D4        3.14159  -0.00000   0.00000  -0.00000   0.00000   3.14159
    D5        1.04328   0.00208   0.00000   0.01932   0.02030   1.06358
    D6       -1.04328  -0.00208   0.00000  -0.01932  -0.02030  -1.06358
         Item               Value     Threshold  Converged?
 Maximum Force            0.019578     0.000450     NO 
 RMS     Force            0.006051     0.000300     NO 
 Maximum Displacement     0.077206     0.001800     NO 
 RMS     Displacement     0.030879     0.001200     NO 
 Predicted change in Energy=-2.180957D-03
 Lowest energy point so far.  Saving SCF results.
 GradGradGradGradGradGradGradGradGradGradGradGradGradGradGradGradGradGrad

 Leave Link  103 at Wed Jun 24 00:57:39 2026, MaxMem=  1879048192 cpu:               0.0 elap:               0.0
 (Enter /CH/g16/l202.exe)
                          Input orientation:                          
 ---------------------------------------------------------------------
 Center     Atomic      Atomic             Coordinates (Angstroms)
 Number     Number       Type             X           Y           Z
 ---------------------------------------------------------------------
      1          8           0       -0.000000    0.000000   -0.040856
      2          6           0        1.165601    0.000000    0.741411
      3          6           0       -1.165601   -0.000000    0.741411
      4          1           0        1.239876    0.896473    1.391230
      5          1           0        1.239876   -0.896473    1.391230
      6          1           0        2.017877    0.000000    0.046557
      7          1           0       -2.017877   -0.000000    0.046557
      8          1           0       -1.239876    0.896473    1.391230
      9          1           0       -1.239876   -0.896473    1.391230
 ---------------------------------------------------------------------
                    Distance matrix (angstroms):
                    1          2          3          4          5
     1  O    0.000000
     2  C    1.403769   0.000000
     3  C    1.403769   2.331201   0.000000
     4  H    2.095668   1.109705   2.648065   0.000000
     5  H    2.095668   1.109705   2.648065   1.792946   0.000000
     6  H    2.019770   1.099635   3.258428   1.793625   1.793625
     7  H    2.019770   3.258428   1.099635   3.636587   3.636587
     8  H    2.095668   2.648065   1.109705   2.479753   3.060037
     9  H    2.095668   2.648065   1.109705   3.060037   2.479753
                    6          7          8          9
     6  H    0.000000
     7  H    4.035754   0.000000
     8  H    3.636587   1.793625   0.000000
     9  H    3.636587   1.793625   1.792946   0.000000
 Stoichiometry    C2H6O
 Framework group  C2V[C2(O),SGV(C2H2),X(H4)]
 Deg. of freedom     7
 Full point group                 C2V     NOp   4
 RotChk:  IX=0 Diff= 1.45D-15
 Largest Abelian subgroup         C2V     NOp   4
 Largest concise Abelian subgroup C2V     NOp   4
                         Standard orientation:                         
 ---------------------------------------------------------------------
 Center     Atomic      Atomic             Coordinates (Angstroms)
 Number     Number       Type             X           Y           Z
 ---------------------------------------------------------------------
      1          8           0        0.000000    0.000000    0.588091
      2          6           0       -0.000000    1.165601   -0.194176
      3          6           0       -0.000000   -1.165601   -0.194176
      4          1           0        0.896473    1.239876   -0.843994
      5          1           0       -0.896473    1.239876   -0.843994
      6          1           0        0.000000    2.017877    0.500678
      7          1           0       -0.000000   -2.017877    0.500678
      8          1           0        0.896473   -1.239876   -0.843994
      9          1           0       -0.896473   -1.239876   -0.843994
 ---------------------------------------------------------------------
 Rotational constants (GHZ):          39.0761100          10.0569973           8.9124146
 Leave Link  202 at Wed Jun 24 00:57:39 2026, MaxMem=  1879048192 cpu:               0.0 elap:               0.0
 (Enter /CH/g16/l301.exe)
 Standard basis: def2SVP (5D, 7F)
 Ernie: Thresh=  0.10000D-02 Tol=  0.10000D-05 Strict=F.
 There are    28 symmetry adapted cartesian basis functions of A1  symmetry.
 There are    11 symmetry adapted cartesian basis functions of A2  symmetry.
 There are    13 symmetry adapted cartesian basis functions of B1  symmetry.
 There are    23 symmetry adapted cartesian basis functions of B2  symmetry.
 There are    26 symmetry adapted basis functions of A1  symmetry.
 There are    11 symmetry adapted basis functions of A2  symmetry.
 There are    13 symmetry adapted basis functions of B1  symmetry.
 There are    22 symmetry adapted basis functions of B2  symmetry.
    72 basis functions,   117 primitive gaussians,    75 cartesian basis functions
    13 alpha electrons       13 beta electrons
       nuclear repulsion energy        83.8538493578 Hartrees.
 IExCor=  402 DFT=T Ex+Corr=B3LYP ExCW=0 ScaHFX=  0.200000
 ScaDFX=  0.800000  0.720000  1.000000  0.810000 ScalE2=  1.000000  1.000000
 IRadAn=      5 IRanWt=     -1 IRanGd=            0 ICorTp=0 IEmpDi=141
 NAtoms=    9 NActive=    9 NUniq=    4 SFac= 4.00D+00 NAtFMM=   60 NAOKFM=F Big=F
 Integral buffers will be    131072 words long.
 Raffenetti 2 integral format.
 Two-electron integral symmetry is turned on.
 R6Disp:  Grimme-D3(BJ) Dispersion energy=       -0.0067639310 Hartrees.
 Nuclear repulsion after empirical dispersion term =       83.8470854268 Hartrees.
 ------------------------------------------------------------------------------
 Polarizable Continuum Model (PCM)
 =================================
 Model                : PCM.
 Atomic radii         : SMD-Coulomb.
 Polarization charges : Total charges.
 Charge compensation  : None.
 Solution method      : On-the-fly selection.
 Cavity type          : VdW (van der Waals Surface) (Alpha=1.000).
 Cavity algorithm     : GePol (No added spheres)
                        Default sphere list used, NSphG=    9.
                        Lebedev-Laikov grids with approx.  5.0 points / Ang**2.
                        Smoothing algorithm: York/Karplus (Gamma=1.0000).
                        Polarization charges: spherical gaussians, with
                                              point-specific exponents (IZeta= 3).
                        Self-potential: point-specific (ISelfS= 7).
                        Self-field    : sphere-specific E.n sum rule (ISelfD= 2).
 1st derivatives      : Analytical E(r).r(x)/FMM algorithm (CHGder, D1EAlg=3).
                        Cavity 1st derivative terms included.
 Solvent              : TetraHydroFuran, Eps=   7.425700 Eps(inf)=   1.974025
 ------------------------------------------------------------------------------
 Spheres list:
 ISph  on   Nord     Re0    Alpha      Xe            Ye            Ze
    1   O      1    2.2940  1.000      0.000000     -0.000000      0.588091
    2   C      2    1.8500  1.000     -0.000000      1.165601     -0.194176
    3   C      3    1.8500  1.000     -0.000000     -1.165601     -0.194176
    4   H      4    1.2000  1.000      0.896473      1.239876     -0.843994
    5   H      5    1.2000  1.000     -0.896473      1.239876     -0.843994
    6   H      6    1.2000  1.000     -0.000000      2.017877      0.500678
    7   H      7    1.2000  1.000     -0.000000     -2.017877      0.500678
    8   H      8    1.2000  1.000      0.896473     -1.239876     -0.843994
    9   H      9    1.2000  1.000     -0.896473     -1.239876     -0.843994
 ------------------------------------------------------------------------------
 GePol: Number of generator spheres                  =       9
 GePol: Total number of spheres                      =       9
 GePol: Number of exposed spheres                    =       9 (100.00%)
 GePol: Number of points                             =     754
 GePol: Average weight of points                     =       0.12
 GePol: Minimum weight of points                     =   0.19D-05
 GePol: Maximum weight of points                     =    0.17992
 GePol: Number of points with low weight             =      28
 GePol: Fraction of low-weight points (<1% of avg)   =       3.71%
 GePol: Cavity surface area                          =     92.171 Ang**2
 GePol: Cavity volume                                =     74.006 Ang**3
 ------------------------------------------------------------------------------
 Atomic radii for non-electrostatic terms: SMD-CDS.
 ------------------------------------------------------------------------------
 PCM non-electrostatic energy =         0.0007076409 Hartrees.
 Nuclear repulsion after PCM non-electrostatic terms =       83.8477930677 Hartrees.
 Leave Link  301 at Wed Jun 24 00:57:39 2026, MaxMem=  1879048192 cpu:               0.1 elap:               0.0
 (Enter /CH/g16/l302.exe)
 NPDir=0 NMtPBC=     1 NCelOv=     1 NCel=       1 NClECP=     1 NCelD=      1
         NCelK=      1 NCelE2=     1 NClLst=     1 CellRange=     0.0.
 One-electron integrals computed using PRISM.
 One-electron integral symmetry used in STVInt
   4 Symmetry operations used in ECPInt.
 ECPInt:  NShTT=     666 NPrTT=    2268 LenC2=     667 LenP2D=    2069.
 LDataN:  DoStor=T MaxTD1= 4 Len=   56
 NBasis=    72 RedAO= T EigKep=  9.20D-03  NBF=    26    11    13    22
 NBsUse=    72 1.00D-06 EigRej= -1.00D+00 NBFU=    26    11    13    22
 Precomputing XC quadrature grid using
 IXCGrd= 4 IRadAn=           5 IRanWt=          -1 IRanGd=           0 AccXCQ= 0.00D+00.
 Generated NRdTot=       0 NPtTot=           0 NUsed=           0 NTot=          32
 NSgBfM=    75    75    75    75    75 MxSgAt=     9 MxSgA2=     9.
 Leave Link  302 at Wed Jun 24 00:57:39 2026, MaxMem=  1879048192 cpu:               0.3 elap:               0.1
 (Enter /CH/g16/l303.exe)
 DipDrv:  MaxL=1.
 Leave Link  303 at Wed Jun 24 00:57:39 2026, MaxMem=  1879048192 cpu:               0.1 elap:               0.0
 (Enter /CH/g16/l401.exe)
 Initial guess from the checkpoint file:  "Me2O.chk"
 B after Tr=     0.000000   -0.000000   -0.000000
         Rot=    1.000000    0.000000    0.000000   -0.000000 Ang=   0.00 deg.
 Guess basis will be translated and rotated to current coordinates.
 JPrj=2 DoOrth=T DoCkMO=T.
 Initial guess orbital symmetries:
       Occupied  (A1) (A1) (B2) (A1) (B2) (A1) (B2) (A1) (B1) (A2)
                 (B2) (A1) (B1)
       Virtual   (A1) (B2) (A1) (B1) (A1) (B2) (A2) (B2) (A1) (A2)
                 (B2) (B1) (A1) (B2) (A1) (B1) (B2) (A1) (B2) (A1)
                 (A2) (B2) (A1) (B1) (A2) (B2) (A1) (B1) (B2) (B1)
                 (A2) (A1) (A2) (A1) (B1) (B2) (B2) (A1) (A1) (A2)
                 (B1) (B2) (B2) (A1) (B1) (A2) (A1) (B2) (A1) (B2)
                 (A1) (A2) (B2) (B1) (B1) (A1) (A2) (A1) (B2)
 The electronic state of the initial guess is 1-A1.
 Generating alternative initial guess.
 ExpMin= 1.22D-01 ExpMax= 2.27D+03 ExpMxC= 3.41D+02 IAcc=3 IRadAn=         5 AccDes= 0.00D+00
 Harris functional with IExCor=  402 and IRadAn=       5 diagonalized for initial guess.
 HarFok:  IExCor=  402 AccDes= 0.00D+00 IRadAn=         5 IDoV= 1 UseB2=F ITyADJ=14
 ICtDFT=  3500011 ScaDFX=  1.000000  1.000000  1.000000  1.000000
 FoFCou: FMM=F IPFlag=           0 FMFlag=      100000 FMFlg1=           0
         NFxFlg=           0 DoJE=T BraDBF=F KetDBF=T FulRan=T
         wScrn=  0.000000 ICntrl=       500 IOpCl=  0 I1Cent=   200000004 NGrid=           0
         NMat0=    1 NMatS0=      1 NMatT0=    0 NMatD0=    1 NMtDS0=    0 NMtDT0=    0
 Petite list used in FoFCou.
 Harris En= -154.927443018114    
 Leave Link  401 at Wed Jun 24 00:57:40 2026, MaxMem=  1879048192 cpu:               0.5 elap:               0.1
 (Enter /CH/g16/l502.exe)
 Keep R1 ints in memory in symmetry-blocked form, NReq=10644973.
 FoFCou: FMM=F IPFlag=           0 FMFlag=           0 FMFlg1=           0
         NFxFlg=           0 DoJE=F BraDBF=F KetDBF=F FulRan=T
         wScrn=  0.000000 ICntrl=       600 IOpCl=  0 I1Cent=           0 NGrid=           0
         NMat0=    1 NMatS0=   2628 NMatT0=    0 NMatD0=    1 NMtDS0=    0 NMtDT0=    0
 Petite list used in FoFCou.
 Closed shell SCF:
 Using DIIS extrapolation, IDIIS=  1040.
 NGot=  1879048192 LenX=  1878149604 LenY=  1878143538
 Requested convergence on RMS density matrix=1.00D-08 within 128 cycles.
 Requested convergence on MAX density matrix=1.00D-06.
 Requested convergence on             energy=1.00D-06.
 No special actions if energy rises.

 Cycle   1  Pass 1  IDiag  1:
 Inv3:  Mode=1 IEnd=     1705548.
 Iteration    1 A*A^-1 deviation from unit magnitude is 3.55D-15 for    198.
 Iteration    1 A*A^-1 deviation from orthogonality  is 1.76D-15 for    371     13.
 Iteration    1 A^-1*A deviation from unit magnitude is 3.22D-15 for    198.
 Iteration    1 A^-1*A deviation from orthogonality  is 1.52D-15 for    390    156.
 E= -154.917167655691    
 DIIS: error= 3.30D-03 at cycle   1 NSaved=   1.
 NSaved= 1 IEnMin= 1 EnMin= -154.917167655691     IErMin= 1 ErrMin= 3.30D-03
 ErrMax= 3.30D-03  0.00D+00 EMaxC= 1.00D-01 BMatC= 7.66D-04 BMatP= 7.66D-04
 IDIUse=3 WtCom= 9.67D-01 WtEn= 3.30D-02
 Coeff-Com:  0.100D+01
 Coeff-En:   0.100D+01
 Coeff:      0.100D+01
 Gap=     0.320 Goal=   None    Shift=    0.000
 GapD=    0.320 DampG=1.000 DampE=1.000 DampFc=1.0000 IDamp=-1.
 RMSDP=5.76D-04 MaxDP=6.01D-03              OVMax= 1.15D-02

 Cycle   2  Pass 1  IDiag  1:
 E= -154.918140332779     Delta-E=       -0.000972677087 Rises=F Damp=F
 DIIS: error= 6.14D-04 at cycle   2 NSaved=   2.
 NSaved= 2 IEnMin= 2 EnMin= -154.918140332779     IErMin= 2 ErrMin= 6.14D-04
 ErrMax= 6.14D-04  0.00D+00 EMaxC= 1.00D-01 BMatC= 3.18D-05 BMatP= 7.66D-04
 IDIUse=3 WtCom= 9.94D-01 WtEn= 6.14D-03
 Coeff-Com:  0.321D-01 0.968D+00
 Coeff-En:   0.000D+00 0.100D+01
 Coeff:      0.319D-01 0.968D+00
 Gap=     0.318 Goal=   None    Shift=    0.000
 RMSDP=1.29D-04 MaxDP=2.56D-03 DE=-9.73D-04 OVMax= 2.61D-03

 Cycle   3  Pass 1  IDiag  1:
 E= -154.918125299619     Delta-E=        0.000015033160 Rises=F Damp=F
 DIIS: error= 7.92D-04 at cycle   3 NSaved=   3.
 NSaved= 3 IEnMin= 2 EnMin= -154.918140332779     IErMin= 2 ErrMin= 6.14D-04
 ErrMax= 7.92D-04  0.00D+00 EMaxC= 1.00D-01 BMatC= 6.07D-05 BMatP= 3.18D-05
 IDIUse=3 WtCom= 2.62D-01 WtEn= 7.38D-01
 Coeff-Com: -0.246D-01 0.593D+00 0.432D+00
 Coeff-En:   0.000D+00 0.597D+00 0.403D+00
 Coeff:     -0.645D-02 0.596D+00 0.411D+00
 Gap=     0.320 Goal=   None    Shift=    0.000
 RMSDP=7.23D-05 MaxDP=1.48D-03 DE= 1.50D-05 OVMax= 1.47D-03

 Cycle   4  Pass 1  IDiag  1:
 E= -154.918170208378     Delta-E=       -0.000044908759 Rises=F Damp=F
 DIIS: error= 5.03D-05 at cycle   4 NSaved=   4.
 NSaved= 4 IEnMin= 4 EnMin= -154.918170208378     IErMin= 4 ErrMin= 5.03D-05
 ErrMax= 5.03D-05  0.00D+00 EMaxC= 1.00D-01 BMatC= 2.18D-07 BMatP= 3.18D-05
 IDIUse=1 WtCom= 1.00D+00 WtEn= 0.00D+00
 Coeff-Com: -0.859D-02 0.142D+00 0.107D+00 0.760D+00
 Coeff:     -0.859D-02 0.142D+00 0.107D+00 0.760D+00
 Gap=     0.319 Goal=   None    Shift=    0.000
 RMSDP=9.72D-06 MaxDP=1.32D-04 DE=-4.49D-05 OVMax= 1.94D-04

 Cycle   5  Pass 1  IDiag  1:
 E= -154.918170374346     Delta-E=       -0.000000165968 Rises=F Damp=F
 DIIS: error= 3.13D-05 at cycle   5 NSaved=   5.
 NSaved= 5 IEnMin= 5 EnMin= -154.918170374346     IErMin= 5 ErrMin= 3.13D-05
 ErrMax= 3.13D-05  0.00D+00 EMaxC= 1.00D-01 BMatC= 6.24D-08 BMatP= 2.18D-07
 IDIUse=1 WtCom= 1.00D+00 WtEn= 0.00D+00
 Coeff-Com: -0.256D-02 0.175D-01 0.143D-01 0.348D+00 0.622D+00
 Coeff:     -0.256D-02 0.175D-01 0.143D-01 0.348D+00 0.622D+00
 Gap=     0.319 Goal=   None    Shift=    0.000
 RMSDP=3.88D-06 MaxDP=6.03D-05 DE=-1.66D-07 OVMax= 6.41D-05

 Cycle   6  Pass 1  IDiag  1:
 E= -154.918170436470     Delta-E=       -0.000000062124 Rises=F Damp=F
 DIIS: error= 4.08D-06 at cycle   6 NSaved=   6.
 NSaved= 6 IEnMin= 6 EnMin= -154.918170436470     IErMin= 6 ErrMin= 4.08D-06
 ErrMax= 4.08D-06  0.00D+00 EMaxC= 1.00D-01 BMatC= 1.13D-09 BMatP= 6.24D-08
 IDIUse=1 WtCom= 1.00D+00 WtEn= 0.00D+00
 Coeff-Com:  0.998D-04-0.502D-02-0.318D-02 0.287D-01 0.150D+00 0.829D+00
 Coeff:      0.998D-04-0.502D-02-0.318D-02 0.287D-01 0.150D+00 0.829D+00
 Gap=     0.319 Goal=   None    Shift=    0.000
 RMSDP=4.94D-07 MaxDP=6.41D-06 DE=-6.21D-08 OVMax= 8.83D-06

 Cycle   7  Pass 1  IDiag  1:
 E= -154.918170437549     Delta-E=       -0.000000001079 Rises=F Damp=F
 DIIS: error= 2.21D-07 at cycle   7 NSaved=   7.
 NSaved= 7 IEnMin= 7 EnMin= -154.918170437549     IErMin= 7 ErrMin= 2.21D-07
 ErrMax= 2.21D-07  0.00D+00 EMaxC= 1.00D-01 BMatC= 3.13D-12 BMatP= 1.13D-09
 IDIUse=1 WtCom= 1.00D+00 WtEn= 0.00D+00
 Coeff-Com:  0.161D-04-0.333D-03-0.342D-03 0.123D-03 0.215D-02 0.493D-01
 Coeff-Com:  0.949D+00
 Coeff:      0.161D-04-0.333D-03-0.342D-03 0.123D-03 0.215D-02 0.493D-01
 Coeff:      0.949D+00
 Gap=     0.319 Goal=   None    Shift=    0.000
 RMSDP=3.16D-08 MaxDP=3.03D-07 DE=-1.08D-09 OVMax= 7.04D-07

 Cycle   8  Pass 1  IDiag  1:
 E= -154.918170437555     Delta-E=       -0.000000000005 Rises=F Damp=F
 DIIS: error= 3.14D-08 at cycle   8 NSaved=   8.
 NSaved= 8 IEnMin= 8 EnMin= -154.918170437555     IErMin= 8 ErrMin= 3.14D-08
 ErrMax= 3.14D-08  0.00D+00 EMaxC= 1.00D-01 BMatC= 4.73D-14 BMatP= 3.13D-12
 IDIUse=1 WtCom= 1.00D+00 WtEn= 0.00D+00
 Coeff-Com:  0.132D-05 0.624D-05-0.215D-04-0.446D-03-0.197D-02-0.400D-02
 Coeff-Com:  0.177D+00 0.830D+00
 Coeff:      0.132D-05 0.624D-05-0.215D-04-0.446D-03-0.197D-02-0.400D-02
 Coeff:      0.177D+00 0.830D+00
 Gap=     0.319 Goal=   None    Shift=    0.000
 RMSDP=3.29D-09 MaxDP=4.71D-08 DE=-5.12D-12 OVMax= 6.90D-08

 Error on total polarization charges =  0.02213
 SCF Done:  E(RB3LYP) =  -154.918170438     A.U. after    8 cycles
            NFock=  8  Conv=0.33D-08     -V/T= 2.0103
 KE= 1.533321716077D+02 PE=-5.289037893974D+02 EE= 1.368056542845D+02
 SMD-CDS (non-electrostatic) energy       (kcal/mol) =       0.44
 (included in total energy above)
 Leave Link  502 at Wed Jun 24 00:57:40 2026, MaxMem=  1879048192 cpu:               4.7 elap:               0.7
 (Enter /CH/g16/l701.exe)
 ... and contract with generalized density number  0.
 Compute integral first derivatives.
 R6Disp: Adding Grimme-D3(BJ) dispersion energy 1st derivatives to the gradient.
   4 Symmetry operations used in ECPInt.
 ECPInt:  NShTT=     666 NPrTT=    2268 LenC2=     667 LenP2D=    2069.
 LDataN:  DoStor=T MaxTD1= 5 Len=  102
 D1PCM: PCM CHGder 1st derivatives, ID1Alg=3 FixD1E=F DoIter=F DoCFld=F I1PDM=0.
 GePol: Maximum number of non-zero 1st derivatives   =     348
 Leave Link  701 at Wed Jun 24 00:57:41 2026, MaxMem=  1879048192 cpu:               1.4 elap:               0.2
 (Enter /CH/g16/l702.exe)
 L702 exits ... SP integral derivatives will be done elsewhere.
 Leave Link  702 at Wed Jun 24 00:57:41 2026, MaxMem=  1879048192 cpu:               0.0 elap:               0.0
 (Enter /CH/g16/l703.exe)
 Integral derivatives from FoFJK, PRISM(SPDF).
 Compute integral first derivatives, UseDBF=F ICtDFT=           0.
 Calling FoFJK, ICntrl=      2127 FMM=F ISym2X=1 I1Cent= 0 IOpClX= 0 NMat=1 NMatS=1 NMatT=0.
 FoFJK:  IHMeth= 1 ICntrl=    2127 DoSepK=F KAlg= 0 I1Cent=           0 FoldK=F
 IRaf=         0 NMat=       1 IRICut=       1 DoRegI=T DoRafI=F ISym2E= 1 IDoP0=0 IntGTp=1.
 FoFCou: FMM=F IPFlag=           0 FMFlag=      100000 FMFlg1=         800
         NFxFlg=           0 DoJE=F BraDBF=F KetDBF=F FulRan=T
         wScrn=  0.000000 ICntrl=      2127 IOpCl=  0 I1Cent=           0 NGrid=           0
         NMat0=    1 NMatS0=      1 NMatT0=    0 NMatD0=    1 NMtDS0=    0 NMtDT0=    0
 Petite list used in FoFCou.
 Leave Link  703 at Wed Jun 24 00:57:41 2026, MaxMem=  1879048192 cpu:               0.7 elap:               0.1
 (Enter /CH/g16/l716.exe)
 Dipole        = 0.00000000D+00 8.88178420D-16-5.73605729D-01
 ***** Axes restored to original set *****
 -------------------------------------------------------------------
 Center     Atomic                   Forces (Hartrees/Bohr)
 Number     Number              X              Y              Z
 -------------------------------------------------------------------
      1        8          -0.000000000   -0.000000000    0.005429879
      2        6           0.000760309    0.000000000   -0.003741734
      3        6          -0.000760309    0.000000000   -0.003741734
      4        1          -0.000416993    0.000018248   -0.000034044
      5        1          -0.000416993   -0.000018248   -0.000034044
      6        1           0.002268926    0.000000000    0.001094882
      7        1          -0.002268926    0.000000000    0.001094882
      8        1           0.000416993    0.000018248   -0.000034044
      9        1           0.000416993   -0.000018248   -0.000034044
 -------------------------------------------------------------------
 Cartesian Forces:  Max     0.005429879 RMS     0.001633401
 Leave Link  716 at Wed Jun 24 00:57:41 2026, MaxMem=  1879048192 cpu:               0.0 elap:               0.0
 (Enter /CH/g16/l103.exe)

 GradGradGradGradGradGradGradGradGradGradGradGradGradGradGradGradGradGrad
 Berny optimization.
 Using GEDIIS/GDIIS optimizer.
 FormGI is forming the generalized inverse of G from B-inverse, IUseBI=4.
 Internal  Forces:  Max     0.003945494 RMS     0.001451932
 Search for a local minimum.
 Step number   2 out of a maximum of   37
 All quantities printed in internal units (Hartrees-Bohrs-Radians)
 RMS Force = .14519D-02 SwitMx=.10000D-02 MixMth= 1
 Mixed Optimization -- RFO/linear search
 Update second derivatives using D2CorX and points    1    2
 DE= -1.75D-03 DEPred=-2.18D-03 R= 8.01D-01
 TightC=F SS=  1.41D+00  RLast= 1.45D-01 DXNew= 5.0454D-01 4.3380D-01
 Trust test= 8.01D-01 RLast= 1.45D-01 DXMaxT set to 4.34D-01
 ITU=  1  0
 Use linear search instead of GDIIS.
     Eigenvalues ---    0.01562   0.01562   0.09928   0.10463   0.10512
     Eigenvalues ---    0.10512   0.15256   0.16000   0.16000   0.16000
     Eigenvalues ---    0.16000   0.18267   0.27561   0.32758   0.33976
     Eigenvalues ---    0.33976   0.33976   0.34263   0.34513   0.44005
     Eigenvalues ---    0.44031
 RFO step:  Lambda=-1.36154044D-04 EMin= 1.56184511D-02
 Quartic linear search produced a step of -0.15441.
 Iteration  1 RMS(Cart)=  0.01004842 RMS(Int)=  0.00010155
 Iteration  2 RMS(Cart)=  0.00007831 RMS(Int)=  0.00006557
 Iteration  3 RMS(Cart)=  0.00000000 RMS(Int)=  0.00006557
 ITry= 1 IFail=0 DXMaxC= 3.02D-02 DCOld= 1.00D+10 DXMaxT= 4.34D-01 DXLimC= 3.00D+00 Rises=F
 ClnCor:  largest displacement from symmetrization is 2.05D-13 for atom     5.
 Variable       Old X    -DE/DX   Delta X   Delta X   Delta X     New X
                                 (Linear)    (Quad)   (Total)
    R1        2.65274   0.00031   0.00177  -0.00159   0.00017   2.65291
    R2        2.65274   0.00031   0.00177  -0.00159   0.00017   2.65291
    R3        2.09704  -0.00003  -0.00360   0.00440   0.00080   2.09784
    R4        2.09704  -0.00003  -0.00360   0.00440   0.00080   2.09784
    R5        2.07801   0.00107  -0.00141   0.00438   0.00297   2.08098
    R6        2.07801   0.00107  -0.00141   0.00438   0.00297   2.08098
    R7        2.09704  -0.00003  -0.00360   0.00440   0.00080   2.09784
    R8        2.09704  -0.00003  -0.00360   0.00440   0.00080   2.09784
    A1        1.95942   0.00347   0.01189  -0.00320   0.00869   1.96811
    A2        1.96264  -0.00119  -0.00613   0.00063  -0.00545   1.95719
    A3        1.96264  -0.00119  -0.00613   0.00063  -0.00545   1.95719
    A4        1.86651   0.00395   0.00627   0.01453   0.02076   1.88727
    A5        1.88098  -0.00005   0.00168  -0.00557  -0.00376   1.87722
    A6        1.89457  -0.00076   0.00229  -0.00530  -0.00305   1.89152
    A7        1.89457  -0.00076   0.00229  -0.00530  -0.00305   1.89152
    A8        1.86651   0.00395   0.00627   0.01453   0.02076   1.88727
    A9        1.96264  -0.00119  -0.00613   0.00063  -0.00545   1.95719
   A10        1.96264  -0.00119  -0.00613   0.00063  -0.00545   1.95719
   A11        1.89457  -0.00076   0.00229  -0.00530  -0.00305   1.89152
   A12        1.89457  -0.00076   0.00229  -0.00530  -0.00305   1.89152
   A13        1.88098  -0.00005   0.00168  -0.00557  -0.00376   1.87722
    D1       -1.06358   0.00091   0.00314   0.00319   0.00645  -1.05713
    D2        1.06358  -0.00091  -0.00314  -0.00319  -0.00645   1.05713
    D3        3.14159   0.00000   0.00000   0.00000   0.00000   3.14159
    D4        3.14159  -0.00000   0.00000  -0.00000   0.00000   3.14159
    D5        1.06358  -0.00091  -0.00314  -0.00319  -0.00645   1.05713
    D6       -1.06358   0.00091   0.00314   0.00319   0.00645  -1.05713
         Item               Value     Threshold  Converged?
 Maximum Force            0.003945     0.000450     NO 
 RMS     Force            0.001452     0.000300     NO 
 Maximum Displacement     0.030216     0.001800     NO 
 RMS     Displacement     0.010033     0.001200     NO 
 Predicted change in Energy=-1.311113D-04
 Lowest energy point so far.  Saving SCF results.
 GradGradGradGradGradGradGradGradGradGradGradGradGradGradGradGradGradGrad

 Leave Link  103 at Wed Jun 24 00:57:41 2026, MaxMem=  1879048192 cpu:               0.0 elap:               0.0
 (Enter /CH/g16/l202.exe)
                          Input orientation:                          
 ---------------------------------------------------------------------
 Center     Atomic      Atomic             Coordinates (Angstroms)
 Number     Number       Type             X           Y           Z
 ---------------------------------------------------------------------
      1          8           0       -0.000000    0.000000   -0.040445
      2          6           0        1.169065    0.000000    0.736801
      3          6           0       -1.169065   -0.000000    0.736801
      4          1           0        1.237710    0.895582    1.389184
      5          1           0        1.237710   -0.895582    1.389184
      6          1           0        2.033867    0.000000    0.055053
      7          1           0       -2.033867   -0.000000    0.055053
      8          1           0       -1.237710    0.895582    1.389184
      9          1           0       -1.237710   -0.895582    1.389184
 ---------------------------------------------------------------------
                    Distance matrix (angstroms):
                    1          2          3          4          5
     1  O    0.000000
     2  C    1.403860   0.000000
     3  C    1.403860   2.338130   0.000000
     4  H    2.092327   1.110128   2.649573   0.000000
     5  H    2.092327   1.110128   2.649573   1.791165   0.000000
     6  H    2.036108   1.101209   3.274684   1.793276   1.793276
     7  H    2.036108   3.274684   1.101209   3.644885   3.644885
     8  H    2.092327   2.649573   1.110128   2.475420   3.055483
     9  H    2.092327   2.649573   1.110128   3.055483   2.475420
                    6          7          8          9
     6  H    0.000000
     7  H    4.067734   0.000000
     8  H    3.644885   1.793276   0.000000
     9  H    3.644885   1.793276   1.791165   0.000000
 Stoichiometry    C2H6O
 Framework group  C2V[C2(O),SGV(C2H2),X(H4)]
 Deg. of freedom     7
 Full point group                 C2V     NOp   4
 RotChk:  IX=0 Diff= 4.21D-16
 Largest Abelian subgroup         C2V     NOp   4
 Largest concise Abelian subgroup C2V     NOp   4
                         Standard orientation:                         
 ---------------------------------------------------------------------
 Center     Atomic      Atomic             Coordinates (Angstroms)
 Number     Number       Type             X           Y           Z
 ---------------------------------------------------------------------
      1          8           0        0.000000   -0.000000    0.586017
      2          6           0        0.000000    1.169065   -0.191228
      3          6           0       -0.000000   -1.169065   -0.191228
      4          1           0        0.895582    1.237710   -0.843611
      5          1           0       -0.895582    1.237710   -0.843611
      6          1           0        0.000000    2.033867    0.490520
      7          1           0       -0.000000   -2.033867    0.490520
      8          1           0        0.895582   -1.237710   -0.843611
      9          1           0       -0.895582   -1.237710   -0.843611
 ---------------------------------------------------------------------
 Rotational constants (GHZ):          39.3728208           9.9979803           8.8792134
 Leave Link  202 at Wed Jun 24 00:57:41 2026, MaxMem=  1879048192 cpu:               0.0 elap:               0.0
 (Enter /CH/g16/l301.exe)
 Standard basis: def2SVP (5D, 7F)
 Ernie: Thresh=  0.10000D-02 Tol=  0.10000D-05 Strict=F.
 There are    28 symmetry adapted cartesian basis functions of A1  symmetry.
 There are    11 symmetry adapted cartesian basis functions of A2  symmetry.
 There are    13 symmetry adapted cartesian basis functions of B1  symmetry.
 There are    23 symmetry adapted cartesian basis functions of B2  symmetry.
 There are    26 symmetry adapted basis functions of A1  symmetry.
 There are    11 symmetry adapted basis functions of A2  symmetry.
 There are    13 symmetry adapted basis functions of B1  symmetry.
 There are    22 symmetry adapted basis functions of B2  symmetry.
    72 basis functions,   117 primitive gaussians,    75 cartesian basis functions
    13 alpha electrons       13 beta electrons
       nuclear repulsion energy        83.7812468586 Hartrees.
 IExCor=  402 DFT=T Ex+Corr=B3LYP ExCW=0 ScaHFX=  0.200000
 ScaDFX=  0.800000  0.720000  1.000000  0.810000 ScalE2=  1.000000  1.000000
 IRadAn=      5 IRanWt=     -1 IRanGd=            0 ICorTp=0 IEmpDi=141
 NAtoms=    9 NActive=    9 NUniq=    4 SFac= 4.00D+00 NAtFMM=   60 NAOKFM=F Big=F
 Integral buffers will be    131072 words long.
 Raffenetti 2 integral format.
 Two-electron integral symmetry is turned on.
 R6Disp:  Grimme-D3(BJ) Dispersion energy=       -0.0067566077 Hartrees.
 Nuclear repulsion after empirical dispersion term =       83.7744902509 Hartrees.
 ------------------------------------------------------------------------------
 Polarizable Continuum Model (PCM)
 =================================
 Model                : PCM.
 Atomic radii         : SMD-Coulomb.
 Polarization charges : Total charges.
 Charge compensation  : None.
 Solution method      : On-the-fly selection.
 Cavity type          : VdW (van der Waals Surface) (Alpha=1.000).
 Cavity algorithm     : GePol (No added spheres)
                        Default sphere list used, NSphG=    9.
                        Lebedev-Laikov grids with approx.  5.0 points / Ang**2.
                        Smoothing algorithm: York/Karplus (Gamma=1.0000).
                        Polarization charges: spherical gaussians, with
                                              point-specific exponents (IZeta= 3).
                        Self-potential: point-specific (ISelfS= 7).
                        Self-field    : sphere-specific E.n sum rule (ISelfD= 2).
 1st derivatives      : Analytical E(r).r(x)/FMM algorithm (CHGder, D1EAlg=3).
                        Cavity 1st derivative terms included.
 Solvent              : TetraHydroFuran, Eps=   7.425700 Eps(inf)=   1.974025
 ------------------------------------------------------------------------------
 Spheres list:
 ISph  on   Nord     Re0    Alpha      Xe            Ye            Ze
    1   O      1    2.2940  1.000      0.000000     -0.000000      0.586017
    2   C      2    1.8500  1.000      0.000000      1.169065     -0.191228
    3   C      3    1.8500  1.000     -0.000000     -1.169065     -0.191228
    4   H      4    1.2000  1.000      0.895582      1.237710     -0.843611
    5   H      5    1.2000  1.000     -0.895582      1.237710     -0.843611
    6   H      6    1.2000  1.000      0.000000      2.033867      0.490520
    7   H      7    1.2000  1.000     -0.000000     -2.033867      0.490520
    8   H      8    1.2000  1.000      0.895582     -1.237710     -0.843611
    9   H      9    1.2000  1.000     -0.895582     -1.237710     -0.843611
 ------------------------------------------------------------------------------
 GePol: Number of generator spheres                  =       9
 GePol: Total number of spheres                      =       9
 GePol: Number of exposed spheres                    =       9 (100.00%)
 GePol: Number of points                             =     758
 GePol: Average weight of points                     =       0.12
 GePol: Minimum weight of points                     =   0.38D-08
 GePol: Maximum weight of points                     =    0.17992
 GePol: Number of points with low weight             =      32
 GePol: Fraction of low-weight points (<1% of avg)   =       4.22%
 GePol: Cavity surface area                          =     92.174 Ang**2
 GePol: Cavity volume                                =     73.999 Ang**3
 ------------------------------------------------------------------------------
 Atomic radii for non-electrostatic terms: SMD-CDS.
 ------------------------------------------------------------------------------
 PCM non-electrostatic energy =         0.0007208220 Hartrees.
 Nuclear repulsion after PCM non-electrostatic terms =       83.7752110728 Hartrees.
 Leave Link  301 at Wed Jun 24 00:57:41 2026, MaxMem=  1879048192 cpu:               0.1 elap:               0.0
 (Enter /CH/g16/l302.exe)
 NPDir=0 NMtPBC=     1 NCelOv=     1 NCel=       1 NClECP=     1 NCelD=      1
         NCelK=      1 NCelE2=     1 NClLst=     1 CellRange=     0.0.
 One-electron integrals computed using PRISM.
 One-electron integral symmetry used in STVInt
   4 Symmetry operations used in ECPInt.
 ECPInt:  NShTT=     666 NPrTT=    2268 LenC2=     667 LenP2D=    2069.
 LDataN:  DoStor=T MaxTD1= 4 Len=   56
 NBasis=    72 RedAO= T EigKep=  9.23D-03  NBF=    26    11    13    22
 NBsUse=    72 1.00D-06 EigRej= -1.00D+00 NBFU=    26    11    13    22
 Precomputing XC quadrature grid using
 IXCGrd= 4 IRadAn=           5 IRanWt=          -1 IRanGd=           0 AccXCQ= 0.00D+00.
 Generated NRdTot=       0 NPtTot=           0 NUsed=           0 NTot=          32
 NSgBfM=    75    75    75    75    75 MxSgAt=     9 MxSgA2=     9.
 Leave Link  302 at Wed Jun 24 00:57:41 2026, MaxMem=  1879048192 cpu:               0.3 elap:               0.1
 (Enter /CH/g16/l303.exe)
 DipDrv:  MaxL=1.
 Leave Link  303 at Wed Jun 24 00:57:41 2026, MaxMem=  1879048192 cpu:               0.0 elap:               0.0
 (Enter /CH/g16/l401.exe)
 Initial guess from the checkpoint file:  "Me2O.chk"
 B after Tr=     0.000000   -0.000000    0.000000
         Rot=    1.000000   -0.000000   -0.000000   -0.000000 Ang=   0.00 deg.
 Guess basis will be translated and rotated to current coordinates.
 JPrj=2 DoOrth=T DoCkMO=T.
 Initial guess orbital symmetries:
       Occupied  (A1) (A1) (B2) (A1) (B2) (A1) (B2) (A1) (B1) (A2)
                 (B2) (A1) (B1)
       Virtual   (A1) (B2) (A1) (B1) (A1) (B2) (A2) (B2) (A1) (B2)
                 (A2) (B1) (A1) (B2) (A1) (B1) (B2) (A1) (B2) (A2)
                 (A1) (B2) (A1) (B1) (B2) (A2) (A1) (B1) (B2) (B1)
                 (A2) (A1) (A2) (A1) (B1) (B2) (A1) (B2) (A2) (A1)
                 (B1) (B2) (B2) (A1) (B1) (A1) (A2) (B2) (A1) (B2)
                 (A2) (A1) (B1) (B2) (B1) (A1) (A2) (A1) (B2)
 The electronic state of the initial guess is 1-A1.
 Generating alternative initial guess.
 ExpMin= 1.22D-01 ExpMax= 2.27D+03 ExpMxC= 3.41D+02 IAcc=3 IRadAn=         5 AccDes= 0.00D+00
 Harris functional with IExCor=  402 and IRadAn=       5 diagonalized for initial guess.
 HarFok:  IExCor=  402 AccDes= 0.00D+00 IRadAn=         5 IDoV= 1 UseB2=F ITyADJ=14
 ICtDFT=  3500011 ScaDFX=  1.000000  1.000000  1.000000  1.000000
 FoFCou: FMM=F IPFlag=           0 FMFlag=      100000 FMFlg1=           0
         NFxFlg=           0 DoJE=T BraDBF=F KetDBF=T FulRan=T
         wScrn=  0.000000 ICntrl=       500 IOpCl=  0 I1Cent=   200000004 NGrid=           0
         NMat0=    1 NMatS0=      1 NMatT0=    0 NMatD0=    1 NMtDS0=    0 NMtDT0=    0
 Petite list used in FoFCou.
 Harris En= -154.927354688648    
 Leave Link  401 at Wed Jun 24 00:57:41 2026, MaxMem=  1879048192 cpu:               0.5 elap:               0.1
 (Enter /CH/g16/l502.exe)
 Keep R1 ints in memory in symmetry-blocked form, NReq=10644973.
 FoFCou: FMM=F IPFlag=           0 FMFlag=           0 FMFlg1=           0
         NFxFlg=           0 DoJE=F BraDBF=F KetDBF=F FulRan=T
         wScrn=  0.000000 ICntrl=       600 IOpCl=  0 I1Cent=           0 NGrid=           0
         NMat0=    1 NMatS0=   2628 NMatT0=    0 NMatD0=    1 NMtDS0=    0 NMtDT0=    0
 Petite list used in FoFCou.
 Closed shell SCF:
 Using DIIS extrapolation, IDIIS=  1040.
 NGot=  1879048192 LenX=  1878149604 LenY=  1878143538
 Requested convergence on RMS density matrix=1.00D-08 within 128 cycles.
 Requested convergence on MAX density matrix=1.00D-06.
 Requested convergence on             energy=1.00D-06.
 No special actions if energy rises.

 Cycle   1  Pass 1  IDiag  1:
 Inv3:  Mode=1 IEnd=     1723692.
 Iteration    1 A*A^-1 deviation from unit magnitude is 4.22D-15 for    226.
 Iteration    1 A*A^-1 deviation from orthogonality  is 2.44D-15 for    607    185.
 Iteration    1 A^-1*A deviation from unit magnitude is 4.22D-15 for    226.
 Iteration    1 A^-1*A deviation from orthogonality  is 1.11D-15 for    608    226.
 E= -154.918262925109    
 DIIS: error= 6.78D-04 at cycle   1 NSaved=   1.
 NSaved= 1 IEnMin= 1 EnMin= -154.918262925109     IErMin= 1 ErrMin= 6.78D-04
 ErrMax= 6.78D-04  0.00D+00 EMaxC= 1.00D-01 BMatC= 3.06D-05 BMatP= 3.06D-05
 IDIUse=3 WtCom= 9.93D-01 WtEn= 6.78D-03
 Coeff-Com:  0.100D+01
 Coeff-En:   0.100D+01
 Coeff:      0.100D+01
 Gap=     0.319 Goal=   None    Shift=    0.000
 RMSDP=1.24D-04 MaxDP=1.29D-03              OVMax= 2.39D-03

 Cycle   2  Pass 1  IDiag  1:
 E= -154.918297060255     Delta-E=       -0.000034135146 Rises=F Damp=F
 DIIS: error= 1.29D-04 at cycle   2 NSaved=   2.
 NSaved= 2 IEnMin= 2 EnMin= -154.918297060255     IErMin= 2 ErrMin= 1.29D-04
 ErrMax= 1.29D-04  0.00D+00 EMaxC= 1.00D-01 BMatC= 1.07D-06 BMatP= 3.06D-05
 IDIUse=3 WtCom= 9.99D-01 WtEn= 1.29D-03
 Coeff-Com:  0.149D-01 0.985D+00
 Coeff-En:   0.000D+00 0.100D+01
 Coeff:      0.149D-01 0.985D+00
 Gap=     0.319 Goal=   None    Shift=    0.000
 RMSDP=2.36D-05 MaxDP=4.33D-04 DE=-3.41D-05 OVMax= 4.57D-04

 Cycle   3  Pass 1  IDiag  1:
 E= -154.918296622719     Delta-E=        0.000000437535 Rises=F Damp=F
 DIIS: error= 1.37D-04 at cycle   3 NSaved=   3.
 NSaved= 3 IEnMin= 2 EnMin= -154.918297060255     IErMin= 2 ErrMin= 1.29D-04
 ErrMax= 1.37D-04  0.00D+00 EMaxC= 1.00D-01 BMatC= 1.90D-06 BMatP= 1.07D-06
 IDIUse=3 WtCom= 4.60D-01 WtEn= 5.40D-01
 Coeff-Com: -0.210D-01 0.586D+00 0.435D+00
 Coeff-En:   0.000D+00 0.591D+00 0.409D+00
 Coeff:     -0.967D-02 0.588D+00 0.421D+00
 Gap=     0.319 Goal=   None    Shift=    0.000
 RMSDP=1.30D-05 MaxDP=2.76D-04 DE= 4.38D-07 OVMax= 2.67D-04

 Cycle   4  Pass 1  IDiag  1:
 E= -154.918298031460     Delta-E=       -0.000001408741 Rises=F Damp=F
 DIIS: error= 1.14D-05 at cycle   4 NSaved=   4.
 NSaved= 4 IEnMin= 4 EnMin= -154.918298031460     IErMin= 4 ErrMin= 1.14D-05
 ErrMax= 1.14D-05  0.00D+00 EMaxC= 1.00D-01 BMatC= 1.22D-08 BMatP= 1.07D-06
 IDIUse=1 WtCom= 1.00D+00 WtEn= 0.00D+00
 Coeff-Com: -0.849D-02 0.146D+00 0.132D+00 0.730D+00
 Coeff:     -0.849D-02 0.146D+00 0.132D+00 0.730D+00
 Gap=     0.319 Goal=   None    Shift=    0.000
 RMSDP=2.17D-06 MaxDP=2.69D-05 DE=-1.41D-06 OVMax= 4.09D-05

 Cycle   5  Pass 1  IDiag  1:
 E= -154.918298040665     Delta-E=       -0.000000009205 Rises=F Damp=F
 DIIS: error= 6.35D-06 at cycle   5 NSaved=   5.
 NSaved= 5 IEnMin= 5 EnMin= -154.918298040665     IErMin= 5 ErrMin= 6.35D-06
 ErrMax= 6.35D-06  0.00D+00 EMaxC= 1.00D-01 BMatC= 2.37D-09 BMatP= 1.22D-08
 IDIUse=1 WtCom= 1.00D+00 WtEn= 0.00D+00
 Coeff-Com: -0.207D-02 0.159D-01 0.231D-01 0.333D+00 0.630D+00
 Coeff:     -0.207D-02 0.159D-01 0.231D-01 0.333D+00 0.630D+00
 Gap=     0.319 Goal=   None    Shift=    0.000
 RMSDP=7.64D-07 MaxDP=1.15D-05 DE=-9.20D-09 OVMax= 1.45D-05

 Cycle   6  Pass 1  IDiag  1:
 E= -154.918298043054     Delta-E=       -0.000000002390 Rises=F Damp=F
 DIIS: error= 9.23D-07 at cycle   6 NSaved=   6.
 NSaved= 6 IEnMin= 6 EnMin= -154.918298043054     IErMin= 6 ErrMin= 9.23D-07
[...]
 GePol: Maximum number of non-zero 1st derivatives   =     344
 Leave Link  701 at Wed Jun 24 00:57:43 2026, MaxMem=  1879048192 cpu:               1.5 elap:               0.2
 (Enter /CH/g16/l702.exe)
 L702 exits ... SP integral derivatives will be done elsewhere.
 Leave Link  702 at Wed Jun 24 00:57:44 2026, MaxMem=  1879048192 cpu:               0.0 elap:               0.0
 (Enter /CH/g16/l703.exe)
 Integral derivatives from FoFJK, PRISM(SPDF).
 Compute integral first derivatives, UseDBF=F ICtDFT=           0.
 Calling FoFJK, ICntrl=      2127 FMM=F ISym2X=1 I1Cent= 0 IOpClX= 0 NMat=1 NMatS=1 NMatT=0.
 FoFJK:  IHMeth= 1 ICntrl=    2127 DoSepK=F KAlg= 0 I1Cent=           0 FoldK=F
 IRaf=         0 NMat=       1 IRICut=       1 DoRegI=T DoRafI=F ISym2E= 1 IDoP0=0 IntGTp=1.
 FoFCou: FMM=F IPFlag=           0 FMFlag=      100000 FMFlg1=         800
         NFxFlg=           0 DoJE=F BraDBF=F KetDBF=F FulRan=T
         wScrn=  0.000000 ICntrl=      2127 IOpCl=  0 I1Cent=           0 NGrid=           0
         NMat0=    1 NMatS0=      1 NMatT0=    0 NMatD0=    1 NMtDS0=    0 NMtDT0=    0
 Petite list used in FoFCou.
 Leave Link  703 at Wed Jun 24 00:57:44 2026, MaxMem=  1879048192 cpu:               0.7 elap:               0.1
 (Enter /CH/g16/l716.exe)
 Dipole        = 0.00000000D+00-1.77635684D-15-5.68717079D-01
 ***** Axes restored to original set *****
 -------------------------------------------------------------------
 Center     Atomic                   Forces (Hartrees/Bohr)
 Number     Number              X              Y              Z
 -------------------------------------------------------------------
      1        8           0.000000000   -0.000000000    0.000372403
      2        6          -0.000310215    0.000000000   -0.000267107
      3        6           0.000310215    0.000000000   -0.000267107
      4        1           0.000047146    0.000004313    0.000031149
      5        1           0.000047146   -0.000004313    0.000031149
      6        1          -0.000005558    0.000000000    0.000018608
      7        1           0.000005558    0.000000000    0.000018608
      8        1          -0.000047146    0.000004313    0.000031149
      9        1          -0.000047146   -0.000004313    0.000031149
 -------------------------------------------------------------------
 Cartesian Forces:  Max     0.000372403 RMS     0.000134363
 Leave Link  716 at Wed Jun 24 00:57:44 2026, MaxMem=  1879048192 cpu:               0.0 elap:               0.0
 (Enter /CH/g16/l103.exe)

 GradGradGradGradGradGradGradGradGradGradGradGradGradGradGradGradGradGrad
 Berny optimization.
 Using GEDIIS/GDIIS optimizer.
 FormGI is forming the generalized inverse of G from B-inverse, IUseBI=4.
 Internal  Forces:  Max     0.000287520 RMS     0.000091089
 Search for a local minimum.
 Step number   4 out of a maximum of   37
 All quantities printed in internal units (Hartrees-Bohrs-Radians)
 RMS Force = .91089D-04 SwitMx=.10000D-02 MixMth= 2
 Mixed Optimization -- En-DIIS/RFO-DIIS
 Swapping is turned off.
 Update second derivatives using D2CorX and points    1    2    3    4
 DE= -3.78D-06 DEPred=-3.04D-06 R= 1.25D+00
 TightC=F SS=  1.41D+00  RLast= 3.78D-03 DXNew= 7.2957D-01 1.1328D-02
 Trust test= 1.25D+00 RLast= 3.78D-03 DXMaxT set to 4.34D-01
 ITU=  1  1  1  0
     Eigenvalues ---    0.01562   0.01562   0.09991   0.10402   0.10402
     Eigenvalues ---    0.10597   0.14152   0.16000   0.16000   0.16000
     Eigenvalues ---    0.16000   0.19041   0.23564   0.32945   0.33976
     Eigenvalues ---    0.33976   0.33976   0.34263   0.34546   0.40123
     Eigenvalues ---    0.44031
 En-DIIS/RFO-DIIS/Sim-DIIS IScMMF=       -3 using points:     4    3
 RFO step:  Lambda=-1.04413911D-06.
 NNeg= 0 NGDIIS= 2 SimSw=  2.50D-01 Rises=F DC= -3.78D-06 SmlDif=  1.00D-05
 NRisDI= 0 DoIntr=F SqrtH=F CThrHd= 10.0 CDAdj=  3.0
 RMS Error=  0.4521104423D-03 NUsed= 2 OKEnD=F EnDIS=F
 InvSVX:  RCond= 3.56D-06 Info=           0 Equed=N FErr=  2.39D-15 BErr=  4.92D-17
 DidBck=F Rises=F RFO-DIIS coefs:    1.41566   -0.41566
 Iteration  1 RMS(Cart)=  0.00069027 RMS(Int)=  0.00000038
 Iteration  2 RMS(Cart)=  0.00000043 RMS(Int)=  0.00000006
 ITry= 1 IFail=0 DXMaxC= 1.58D-03 DCOld= 1.00D+10 DXMaxT= 4.34D-01 DXLimC= 3.00D+00 Rises=F
 ClnCor:  largest displacement from symmetrization is 4.19D-13 for atom     5.
 Variable       Old X    -DE/DX   Delta X   Delta X   Delta X     New X
                                 (Linear)    (Quad)   (Total)
    R1        2.65037  -0.00029  -0.00106  -0.00006  -0.00112   2.64925
    R2        2.65037  -0.00029  -0.00106  -0.00006  -0.00112   2.64925
    R3        2.09753   0.00002  -0.00013   0.00023   0.00010   2.09763
    R4        2.09753   0.00002  -0.00013   0.00023   0.00010   2.09763
    R5        2.08058  -0.00002  -0.00017   0.00012  -0.00005   2.08053
    R6        2.08058  -0.00002  -0.00017   0.00012  -0.00005   2.08053
    R7        2.09753   0.00002  -0.00013   0.00023   0.00010   2.09763
    R8        2.09753   0.00002  -0.00013   0.00023   0.00010   2.09763
    A1        1.96863   0.00017   0.00021   0.00081   0.00102   1.96964
    A2        1.95704   0.00006  -0.00006   0.00055   0.00048   1.95752
    A3        1.95704   0.00006  -0.00006   0.00055   0.00048   1.95752
    A4        1.88759  -0.00001   0.00013   0.00002   0.00015   1.88773
    A5        1.87738  -0.00005   0.00006  -0.00044  -0.00038   1.87700
    A6        1.89144  -0.00003  -0.00003  -0.00036  -0.00040   1.89105
    A7        1.89144  -0.00003  -0.00003  -0.00036  -0.00040   1.89105
    A8        1.88759  -0.00001   0.00013   0.00002   0.00015   1.88773
    A9        1.95704   0.00006  -0.00006   0.00055   0.00048   1.95752
   A10        1.95704   0.00006  -0.00006   0.00055   0.00048   1.95752
   A11        1.89144  -0.00003  -0.00003  -0.00036  -0.00040   1.89105
   A12        1.89144  -0.00003  -0.00003  -0.00036  -0.00040   1.89105
   A13        1.87738  -0.00005   0.00006  -0.00044  -0.00038   1.87700
    D1       -1.05712  -0.00001   0.00000  -0.00011  -0.00010  -1.05723
    D2        1.05712   0.00001  -0.00000   0.00011   0.00010   1.05723
    D3        3.14159   0.00000   0.00000  -0.00000   0.00000   3.14159
    D4        3.14159  -0.00000   0.00000  -0.00000   0.00000   3.14159
    D5        1.05712   0.00001  -0.00000   0.00011   0.00010   1.05723
    D6       -1.05712  -0.00001   0.00000  -0.00011  -0.00010  -1.05723
         Item               Value     Threshold  Converged?
 Maximum Force            0.000288     0.000450     YES
 RMS     Force            0.000091     0.000300     YES
 Maximum Displacement     0.001580     0.001800     YES
 RMS     Displacement     0.000690     0.001200     YES
 Predicted change in Energy=-5.220768D-07
 Optimization completed.
    -- Stationary point found.
                           ----------------------------
                           !   Optimized Parameters   !
                           ! (Angstroms and Degrees)  !
 --------------------------                            --------------------------
 ! Name  Definition              Value          Derivative Info.                !
 --------------------------------------------------------------------------------
 ! R1    R(1,2)                  1.4025         -DE/DX =   -0.0003              !
 ! R2    R(1,3)                  1.4025         -DE/DX =   -0.0003              !
 ! R3    R(2,4)                  1.11           -DE/DX =    0.0                 !
 ! R4    R(2,5)                  1.11           -DE/DX =    0.0                 !
 ! R5    R(2,6)                  1.101          -DE/DX =    0.0                 !
 ! R6    R(3,7)                  1.101          -DE/DX =    0.0                 !
 ! R7    R(3,8)                  1.11           -DE/DX =    0.0                 !
 ! R8    R(3,9)                  1.11           -DE/DX =    0.0                 !
 ! A1    A(2,1,3)              112.7939         -DE/DX =    0.0002              !
 ! A2    A(1,2,4)              112.13           -DE/DX =    0.0001              !
 ! A3    A(1,2,5)              112.13           -DE/DX =    0.0001              !
 ! A4    A(1,2,6)              108.1507         -DE/DX =    0.0                 !
 ! A5    A(4,2,5)              107.5658         -DE/DX =    0.0                 !
 ! A6    A(4,2,6)              108.3716         -DE/DX =    0.0                 !
 ! A7    A(5,2,6)              108.3716         -DE/DX =    0.0                 !
 ! A8    A(1,3,7)              108.1507         -DE/DX =    0.0                 !
 ! A9    A(1,3,8)              112.13           -DE/DX =    0.0001              !
 ! A10   A(1,3,9)              112.13           -DE/DX =    0.0001              !
 ! A11   A(7,3,8)              108.3716         -DE/DX =    0.0                 !
 ! A12   A(7,3,9)              108.3716         -DE/DX =    0.0                 !
 ! A13   A(8,3,9)              107.5658         -DE/DX =    0.0                 !
 ! D1    D(3,1,2,4)            -60.5687         -DE/DX =    0.0                 !
 ! D2    D(3,1,2,5)             60.5687         -DE/DX =    0.0                 !
 ! D3    D(3,1,2,6)            180.0            -DE/DX =    0.0                 !
 ! D4    D(2,1,3,7)            180.0            -DE/DX =    0.0                 !
 ! D5    D(2,1,3,8)             60.5687         -DE/DX =    0.0                 !
 ! D6    D(2,1,3,9)            -60.5687         -DE/DX =    0.0                 !
 --------------------------------------------------------------------------------
 Lowest energy point so far.  Saving SCF results.
 Largest change from initial coordinates is atom    2       0.025 Angstoms.
 GradGradGradGradGradGradGradGradGradGradGradGradGradGradGradGradGradGrad

 Leave Link  103 at Wed Jun 24 00:57:44 2026, MaxMem=  1879048192 cpu:               0.0 elap:               0.0
 (Enter /CH/g16/l202.exe)
                          Input orientation:                          
 ---------------------------------------------------------------------
 Center     Atomic      Atomic             Coordinates (Angstroms)
 Number     Number       Type             X           Y           Z
 ---------------------------------------------------------------------
      1          8           0       -0.000000    0.000000   -0.039484
      2          6           0        1.168144    0.000000    0.736718
      3          6           0       -1.168144   -0.000000    0.736718
      4          1           0        1.236790    0.895502    1.388934
      5          1           0        1.236790   -0.895502    1.388934
      6          1           0        2.032817    0.000000    0.055156
      7          1           0       -2.032817   -0.000000    0.055156
      8          1           0       -1.236790    0.895502    1.388934
      9          1           0       -1.236790   -0.895502    1.388934
 ---------------------------------------------------------------------
                    Distance matrix (angstroms):
                    1          2          3          4          5
     1  O    0.000000
     2  C    1.402515   0.000000
     3  C    1.402515   2.336287   0.000000
     4  H    2.090921   1.109965   2.647832   0.000000
     5  H    2.090921   1.109965   2.647832   1.791003   0.000000
     6  H    2.035019   1.100993   3.272717   1.792916   1.792916
     7  H    2.035019   3.272717   1.100993   3.642968   3.642968
     8  H    2.090921   2.647832   1.109965   2.473580   3.053898
     9  H    2.090921   2.647832   1.109965   3.053898   2.473580
                    6          7          8          9
     6  H    0.000000
     7  H    4.065634   0.000000
     8  H    3.642968   1.792916   0.000000
     9  H    3.642968   1.792916   1.791003   0.000000
 Stoichiometry    C2H6O
 Framework group  C2V[C2(O),SGV(C2H2),X(H4)]
 Deg. of freedom     7
 Full point group                 C2V     NOp   4
 RotChk:  IX=0 Diff= 3.16D-16
 Largest Abelian subgroup         C2V     NOp   4
 Largest concise Abelian subgroup C2V     NOp   4
                         Standard orientation:                         
 ---------------------------------------------------------------------
 Center     Atomic      Atomic             Coordinates (Angstroms)
 Number     Number       Type             X           Y           Z
 ---------------------------------------------------------------------
      1          8           0        0.000000   -0.000000    0.585284
      2          6           0       -0.000000    1.168144   -0.190918
      3          6           0       -0.000000   -1.168144   -0.190918
      4          1           0        0.895502    1.236790   -0.843135
      5          1           0       -0.895502    1.236790   -0.843135
      6          1           0       -0.000000    2.032817    0.490644
      7          1           0       -0.000000   -2.032817    0.490644
      8          1           0        0.895502   -1.236790   -0.843135
      9          1           0       -0.895502   -1.236790   -0.843135
 ---------------------------------------------------------------------
 Rotational constants (GHZ):          39.4340742          10.0118549           8.8930919
 Leave Link  202 at Wed Jun 24 00:57:44 2026, MaxMem=  1879048192 cpu:               0.0 elap:               0.0
 (Enter /CH/g16/l601.exe)
 Copying SCF densities to generalized density rwf, IOpCl= 0 IROHF=0.

 **********************************************************************

            Population analysis using the SCF Density.

 **********************************************************************

 Orbital symmetries:
       Occupied  (A1) (A1) (B2) (A1) (B2) (A1) (B2) (A1) (B1) (A2)
                 (B2) (A1) (B1)
       Virtual   (A1) (B2) (A1) (B1) (A1) (B2) (A2) (B2) (A1) (A2)
                 (B2) (B1) (A1) (B2) (A1) (B1) (B2) (A1) (B2) (A2)
                 (A1) (B2) (A1) (B1) (B2) (A2) (A1) (B1) (B2) (B1)
                 (A2) (A1) (A2) (A1) (B1) (B2) (A1) (B2) (A2) (A1)
                 (B1) (B2) (B2) (A1) (B1) (A1) (A2) (B2) (A1) (B2)
                 (A1) (A2) (B1) (B2) (B1) (A2) (A1) (A1) (B2)
 The electronic state is 1-A1.
 Alpha  occ. eigenvalues --  -19.12558 -10.22093 -10.22091  -1.01760  -0.70644
 Alpha  occ. eigenvalues --   -0.61860  -0.47283  -0.46275  -0.46135  -0.38385
 Alpha  occ. eigenvalues --   -0.36815  -0.31089  -0.25075
 Alpha virt. eigenvalues --    0.06809   0.11137   0.12608   0.13512   0.13794
 Alpha virt. eigenvalues --    0.15737   0.16778   0.24565   0.42537   0.46025
 Alpha virt. eigenvalues --    0.46100   0.47900   0.50352   0.62614   0.63617
 Alpha virt. eigenvalues --    0.63793   0.65661   0.66551   0.68098   0.68457
 Alpha virt. eigenvalues --    0.69796   0.87970   0.94940   0.99722   1.19156
 Alpha virt. eigenvalues --    1.19665   1.26332   1.33212   1.47860   1.52750
 Alpha virt. eigenvalues --    1.53309   1.54703   1.69640   1.73177   1.73823
 Alpha virt. eigenvalues --    1.77063   1.81048   1.82305   1.84937   1.85199
 Alpha virt. eigenvalues --    1.91429   2.02074   2.19065   2.22363   2.29345
 Alpha virt. eigenvalues --    2.34157   2.34520   2.42767   2.63430   2.64630
 Alpha virt. eigenvalues --    2.77789   2.77918   2.84433   2.86305   2.95366
 Alpha virt. eigenvalues --    3.13823   3.14039   3.31230   3.49809
          Condensed to atoms (all electrons):
               1          2          3          4          5          6
     1  O    7.932055   0.333302   0.333302  -0.035316  -0.035316  -0.026660
     2  C    0.333302   4.381635  -0.042994   0.384072   0.384072   0.393076
     3  C    0.333302  -0.042994   4.381635  -0.005343  -0.005343   0.007295
     4  H   -0.035316   0.384072  -0.005343   0.719025  -0.047215  -0.029271
     5  H   -0.035316   0.384072  -0.005343  -0.047215   0.719025  -0.029271
     6  H   -0.026660   0.393076   0.007295  -0.029271  -0.029271   0.659044
     7  H   -0.026660   0.007295   0.393076  -0.000105  -0.000105  -0.000603
     8  H   -0.035316  -0.005343   0.384072   0.017145  -0.005597  -0.000105
     9  H   -0.035316  -0.005343   0.384072  -0.005597   0.017145  -0.000105
               7          8          9
     1  O   -0.026660  -0.035316  -0.035316
     2  C    0.007295  -0.005343  -0.005343
     3  C    0.393076   0.384072   0.384072
     4  H   -0.000105   0.017145  -0.005597
     5  H   -0.000105  -0.005597   0.017145
     6  H   -0.000603  -0.000105  -0.000105
     7  H    0.659044  -0.029271  -0.029271
     8  H   -0.029271   0.719025  -0.047215
     9  H   -0.029271  -0.047215   0.719025
 Mulliken charges:
               1
     1  O   -0.404077
     2  C    0.170230
     3  C    0.170230
     4  H    0.002605
     5  H    0.002605
     6  H    0.026599
     7  H    0.026599
     8  H    0.002605
     9  H    0.002605
 Sum of Mulliken charges =   0.00000
 Mulliken charges with hydrogens summed into heavy atoms:
               1
     1  O   -0.404077
     2  C    0.202038
     3  C    0.202038
 Electronic spatial extent (au):  <R**2>=            187.8478
 Charge=              0.0000 electrons
 Dipole moment (field-independent basis, Debye):
    X=              0.0000    Y=             -0.0000    Z=             -1.4455  Tot=              1.4455
 Quadrupole moment (field-independent basis, Debye-Ang):
   XX=            -20.1635   YY=            -17.0857   ZZ=            -21.0340
   XY=             -0.0000   XZ=             -0.0000   YZ=             -0.0000
 Traceless Quadrupole moment (field-independent basis, Debye-Ang):
   XX=             -0.7358   YY=              2.3420   ZZ=             -1.6063
   XY=             -0.0000   XZ=             -0.0000   YZ=             -0.0000
 Octapole moment (field-independent basis, Debye-Ang**2):
  XXX=              0.0000  YYY=             -0.0000  ZZZ=              1.6932  XYY=             -0.0000
  XXY=             -0.0000  XXZ=              0.1074  XZZ=              0.0000  YZZ=              0.0000
  YYZ=              1.9504  XYZ=              0.0000
 Hexadecapole moment (field-independent basis, Debye-Ang**3):
 XXXX=            -34.4818 YYYY=           -159.3712 ZZZZ=            -49.3214 XXXY=             -0.0000
 XXXZ=             -0.0000 YYYX=             -0.0000 YYYZ=             -0.0000 ZZZX=             -0.0000
 ZZZY=             -0.0000 XXYY=            -34.2457 XXZZ=            -13.3375 YYZZ=            -34.0904
 XXYZ=              0.0000 YYXZ=              0.0000 ZZXY=             -0.0000
 N-N= 8.383228078803D+01 E-N=-5.288634004691D+02  KE= 1.533247066961D+02
 Symmetry A1   KE= 1.042116793816D+02
 Symmetry A2   KE= 2.071262777454D+00
 Symmetry B1   KE= 6.541387587068D+00
 Symmetry B2   KE= 4.050037695000D+01
 No NMR shielding tensors so no spin-rotation constants.
 Leave Link  601 at Wed Jun 24 00:57:44 2026, MaxMem=  1879048192 cpu:               0.3 elap:               0.1
 (Enter /CH/g16/l9999.exe)
 Unable to Open any file for archive entry.
 1\1\GINC-NODE0-CHCLUSTER\FOpt\RB3LYP\def2SVP\C2H6O1\LS\24-Jun-2026\0\\
 #p B3LYP/def2SVP EmpiricalDispersion=GD3BJ opt SCRF=(SMD,Solvent=Tetra
 hydrofuran) int=ultrafine\\Me2O\\0,1\O,0.,0.,-0.0394842051\C,1.1681436
 493,0.,0.7367178154\C,-1.1681436493,0.,0.7367178154\H,1.236790059,0.89
 55016603,1.388934356\H,1.236790059,-0.8955016603,1.388934356\H,2.03281
 67565,0.,0.0551555752\H,-2.0328167565,0.,0.0551555752\H,-1.236790059,0
 .8955016603,1.388934356\H,-1.236790059,-0.8955016603,1.388934356\\Vers
 ion=ES64L-G16RevC.02\State=1-A1\HF=-154.9183018\RMSD=2.952e-09\RMSF=1.
 344e-04\Dipole=0.,0.,0.5687171\Quadrupole=1.7412485,-0.54702,-1.194228
 5,0.,0.,0.\PG=C02V [C2(O1),SGV(C2H2),X(H4)]\\@
 The archive entry for this job was punched.


 UNLESS WE CHANGE DIRECTIONS, WE WILL WIND UP WHERE WE ARE HEADED.
     -- CONFUCIUS
 Job cpu time:       0 days  0 hours  0 minutes 35.6 seconds.
 Elapsed time:       0 days  0 hours  0 minutes  6.1 seconds.
 File lengths (MBytes):  RWF=     16 Int=      0 D2E=      0 Chk=      3 Scr=      1
 Normal termination of Gaussian 16 at Wed Jun 24 00:57:44 2026.
