 Entering Gaussian System, Link 0=/CH/g16/g16
 Initial command:
 /CH/g16/l1.exe "/tmp/g16tz_Me2O_tz_2947290/Gau-2947302.inp" -scrdir="/tmp/g16tz_Me2O_tz_2947290/"
 Default is to use a total of  96 processors:
                               96 via shared-memory
                                1 via Linda
 Entering Link 1 = /CH/g16/l1.exe PID=   2947315.
  
 Copyright (c) 1988-2021, Gaussian, Inc.  All Rights Reserved.
  
 This is part of the Gaussian(R) 16 program.  It is based on
 the Gaussian(R) 09 system (copyright 2009, Gaussian, Inc.),
 the Gaussian(R) 03 system (copyright 2003, Gaussian, Inc.),
 the Gaussian(R) 98 system (copyright 1998, Gaussian, Inc.),
 the Gaussian(R) 94 system (copyright 1995, Gaussian, Inc.),
 the Gaussian 92(TM) system (copyright 1992, Gaussian, Inc.),
 the Gaussian 90(TM) system (copyright 1990, Gaussian, Inc.),
 the Gaussian 88(TM) system (copyright 1988, Gaussian, Inc.),
 the Gaussian 86(TM) system (copyright 1986, Carnegie Mellon
 University), and the Gaussian 82(TM) system (copyright 1983,
 Carnegie Mellon University). Gaussian is a federally registered
 trademark of Gaussian, Inc.
  
 This software contains proprietary and confidential information,
 including trade secrets, belonging to Gaussian, Inc.
  
 This software is provided under written license and may be
 used, copied, transmitted, or stored only in accord with that
 written license.
  
 The following legend is applicable only to US Government
 contracts under FAR:
  
                    RESTRICTED RIGHTS LEGEND
  
 Use, reproduction and disclosure by the US Government is
 subject to restrictions as set forth in subparagraphs (a)
 and (c) of the Commercial Computer Software - Restricted
 Rights clause in FAR 52.227-19.
  
 Gaussian, Inc.
 340 Quinnipiac St., Bldg. 40, Wallingford CT 06492
  
  
 ---------------------------------------------------------------
 Warning -- This program may not be used in any manner that
 competes with the business of Gaussian, Inc. or will provide
 assistance to any competitor of Gaussian, Inc.  The licensee
 of this program is prohibited from giving any competitor of
 Gaussian, Inc. access to this program.  By using this program,
 the user acknowledges that Gaussian, Inc. is engaged in the
 business of creating and licensing software in the field of
 computational chemistry and represents and warrants to the
 licensee that it is not a competitor of Gaussian, Inc. and that
 it will not use this program in any manner prohibited above.
 ---------------------------------------------------------------
  

 Cite this work as:
 Gaussian 16, Revision C.02,
 M. J. Frisch, G. W. Trucks, H. B. Schlegel, G. E. Scuseria, 
 M. A. Robb, J. R. Cheeseman, G. Scalmani, V. Barone, 
 G. A. Petersson, H. Nakatsuji, X. Li, M. Caricato, A. V. Marenich, 
 J. Bloino, B. G. Janesko, R. Gomperts, B. Mennucci, H. P. Hratchian, 
 J. V. Ortiz, A. F. Izmaylov, J. L. Sonnenberg, D. Williams-Young, 
 F. Ding, F. Lipparini, F. Egidi, J. Goings, B. Peng, A. Petrone, 
 T. Henderson, D. Ranasinghe, V. G. Zakrzewski, J. Gao, N. Rega, 
 G. Zheng, W. Liang, M. Hada, M. Ehara, K. Toyota, R. Fukuda, 
 J. Hasegawa, M. Ishida, T. Nakajima, Y. Honda, O. Kitao, H. Nakai, 
 T. Vreven, K. Throssell, J. A. Montgomery, Jr., J. E. Peralta, 
 F. Ogliaro, M. J. Bearpark, J. J. Heyd, E. N. Brothers, K. N. Kudin, 
 V. N. Staroverov, T. A. Keith, R. Kobayashi, J. Normand, 
 K. Raghavachari, A. P. Rendell, J. C. Burant, S. S. Iyengar, 
 J. Tomasi, M. Cossi, J. M. Millam, M. Klene, C. Adamo, R. Cammi, 
 J. W. Ochterski, R. L. Martin, K. Morokuma, O. Farkas, 
 J. B. Foresman, and D. J. Fox, Gaussian, Inc., Wallingford CT, 2019.
 
 ******************************************
 Gaussian 16:  ES64L-G16RevC.02  7-Dec-2021
                24-Jun-2026 
 ******************************************
 %chk=Me2O_tz.chk
 %nprocshared=8
 Will use up to    8 processors via shared memory.
 %mem=14GB
 ----------------------------------------------------------------------
 #p B3LYP/def2TZVP EmpiricalDispersion=GD3BJ SCRF=(SMD,Solvent=Tetrahyd
 rofuran) int=ultrafine
 ----------------------------------------------------------------------
 1/38=1,172=1/1;
 2/12=2,17=6,18=5,40=1/2;
 3/5=44,7=101,11=2,25=1,30=1,70=32201,72=20,74=-5,75=-5,124=41/1,2,3;
 4//1;
 5/5=2,38=5,53=20/2;
 6/7=2,8=2,9=2,10=2,28=1/1;
 99/5=1,9=1/99;
 Leave Link    1 at Wed Jun 24 01:17:41 2026, MaxMem=  1879048192 cpu:               4.5 elap:               0.1
 (Enter /CH/g16/l101.exe)
 -------
 Me2O_tz
 -------
 Symbolic Z-matrix:
 Charge =  0 Multiplicity = 1
 O                     0.        0.        0.58528 
 C                     0.        1.16814  -0.19092 
 C                     0.       -1.16814  -0.19092 
 H                     0.8955    1.23679  -0.84313 
 H                    -0.8955    1.23679  -0.84313 
 H                     0.        2.03282   0.49064 
 H                     0.       -2.03282   0.49064 
 H                     0.8955   -1.23679  -0.84313 
 H                    -0.8955   -1.23679  -0.84313 
 
 ITRead=  0  0  0  0  0  0  0  0  0
 MicOpt= -1 -1 -1 -1 -1 -1 -1 -1 -1
 NAtoms=      9 NQM=        9 NQMF=       0 NMMI=      0 NMMIF=      0
                NMic=       0 NMicF=      0.
                    Isotopes and Nuclear Properties:
 (Nuclear quadrupole moments (NQMom) in fm**2, nuclear magnetic moments (NMagM)
  in nuclear magnetons)

  Atom         1           2           3           4           5           6           7           8           9
 IAtWgt=          16          12          12           1           1           1           1           1           1
 AtmWgt=  15.9949146  12.0000000  12.0000000   1.0078250   1.0078250   1.0078250   1.0078250   1.0078250   1.0078250
 NucSpn=           0           0           0           1           1           1           1           1           1
 AtZEff=  -0.0000000  -0.0000000  -0.0000000  -0.0000000  -0.0000000  -0.0000000  -0.0000000  -0.0000000  -0.0000000
 NQMom=    0.0000000   0.0000000   0.0000000   0.0000000   0.0000000   0.0000000   0.0000000   0.0000000   0.0000000
 NMagM=    0.0000000   0.0000000   0.0000000   2.7928460   2.7928460   2.7928460   2.7928460   2.7928460   2.7928460
 AtZNuc=   8.0000000   6.0000000   6.0000000   1.0000000   1.0000000   1.0000000   1.0000000   1.0000000   1.0000000
 Leave Link  101 at Wed Jun 24 01:17:41 2026, MaxMem=  1879048192 cpu:               0.1 elap:               0.1
 (Enter /CH/g16/l202.exe)
                          Input orientation:                          
 ---------------------------------------------------------------------
 Center     Atomic      Atomic             Coordinates (Angstroms)
 Number     Number       Type             X           Y           Z
 ---------------------------------------------------------------------
      1          8           0        0.000000    0.000000    0.585280
      2          6           0        0.000000    1.168140   -0.190920
      3          6           0        0.000000   -1.168140   -0.190920
      4          1           0        0.895500    1.236790   -0.843130
      5          1           0       -0.895500    1.236790   -0.843130
      6          1           0        0.000000    2.032820    0.490640
      7          1           0        0.000000   -2.032820    0.490640
      8          1           0        0.895500   -1.236790   -0.843130
      9          1           0       -0.895500   -1.236790   -0.843130
 ---------------------------------------------------------------------
                    Distance matrix (angstroms):
                    1          2          3          4          5
     1  O    0.000000
     2  C    1.402511   0.000000
     3  C    1.402511   2.336280   0.000000
     4  H    2.090915   1.109960   2.647827   0.000000
     5  H    2.090915   1.109960   2.647827   1.791000   0.000000
     6  H    2.035022   1.100998   3.272716   1.792910   1.792910
     7  H    2.035022   3.272716   1.100998   3.642968   3.642968
     8  H    2.090915   2.647827   1.109960   2.473580   3.053896
     9  H    2.090915   2.647827   1.109960   3.053896   2.473580
                    6          7          8          9
     6  H    0.000000
     7  H    4.065640   0.000000
     8  H    3.642968   1.792910   0.000000
     9  H    3.642968   1.792910   1.791000   0.000000
 Stoichiometry    C2H6O
 Framework group  C2V[C2(O),SGV(C2H2),X(H4)]
 Deg. of freedom     7
 Full point group                 C2V     NOp   4
 Largest Abelian subgroup         C2V     NOp   4
 Largest concise Abelian subgroup C2V     NOp   4
                         Standard orientation:                         
 ---------------------------------------------------------------------
 Center     Atomic      Atomic             Coordinates (Angstroms)
 Number     Number       Type             X           Y           Z
 ---------------------------------------------------------------------
      1          8           0       -0.000000   -0.000000    0.585282
      2          6           0        0.000000    1.168140   -0.190918
      3          6           0       -0.000000   -1.168140   -0.190918
      4          1           0        0.895500    1.236790   -0.843128
      5          1           0       -0.895500    1.236790   -0.843128
      6          1           0        0.000000    2.032820    0.490642
      7          1           0       -0.000000   -2.032820    0.490642
      8          1           0        0.895500   -1.236790   -0.843128
      9          1           0       -0.895500   -1.236790   -0.843128
 ---------------------------------------------------------------------
 Rotational constants (GHZ):          39.4343746          10.0118927           8.8931332
 Leave Link  202 at Wed Jun 24 01:17:41 2026, MaxMem=  1879048192 cpu:               0.0 elap:               0.0
 (Enter /CH/g16/l301.exe)
 Standard basis: def2TZVP (5D, 7F)
 Ernie: Thresh=  0.10000D-02 Tol=  0.10000D-05 Strict=F.
 There are    53 symmetry adapted cartesian basis functions of A1  symmetry.
 There are    21 symmetry adapted cartesian basis functions of A2  symmetry.
 There are    26 symmetry adapted cartesian basis functions of B1  symmetry.
 There are    44 symmetry adapted cartesian basis functions of B2  symmetry.
 There are    46 symmetry adapted basis functions of A1  symmetry.
 There are    20 symmetry adapted basis functions of A2  symmetry.
 There are    24 symmetry adapted basis functions of B1  symmetry.
 There are    39 symmetry adapted basis functions of B2  symmetry.
   129 basis functions,   201 primitive gaussians,   144 cartesian basis functions
    13 alpha electrons       13 beta electrons
       nuclear repulsion energy        83.8385203057 Hartrees.
 IExCor=  402 DFT=T Ex+Corr=B3LYP ExCW=0 ScaHFX=  0.200000
 ScaDFX=  0.800000  0.720000  1.000000  0.810000 ScalE2=  1.000000  1.000000
 IRadAn=      5 IRanWt=     -1 IRanGd=            0 ICorTp=0 IEmpDi=141
 NAtoms=    9 NActive=    9 NUniq=    4 SFac= 4.00D+00 NAtFMM=   60 NAOKFM=F Big=F
 Integral buffers will be    131072 words long.
 Raffenetti 2 integral format.
 Two-electron integral symmetry is turned on.
 R6Disp:  Grimme-D3(BJ) Dispersion energy=       -0.0067591789 Hartrees.
 Nuclear repulsion after empirical dispersion term =       83.8317611268 Hartrees.
 ------------------------------------------------------------------------------
 Polarizable Continuum Model (PCM)
 =================================
 Model                : PCM.
 Atomic radii         : SMD-Coulomb.
 Polarization charges : Total charges.
 Charge compensation  : None.
 Solution method      : On-the-fly selection.
 Cavity type          : VdW (van der Waals Surface) (Alpha=1.000).
 Cavity algorithm     : GePol (No added spheres)
                        Default sphere list used, NSphG=    9.
                        Lebedev-Laikov grids with approx.  5.0 points / Ang**2.
                        Smoothing algorithm: York/Karplus (Gamma=1.0000).
                        Polarization charges: spherical gaussians, with
                                              point-specific exponents (IZeta= 3).
                        Self-potential: point-specific (ISelfS= 7).
                        Self-field    : sphere-specific E.n sum rule (ISelfD= 2).
 Solvent              : TetraHydroFuran, Eps=   7.425700 Eps(inf)=   1.974025
 ------------------------------------------------------------------------------
 Spheres list:
 ISph  on   Nord     Re0    Alpha      Xe            Ye            Ze
    1   O      1    2.2940  1.000     -0.000000     -0.000000      0.585282
    2   C      2    1.8500  1.000      0.000000      1.168140     -0.190918
    3   C      3    1.8500  1.000     -0.000000     -1.168140     -0.190918
    4   H      4    1.2000  1.000      0.895500      1.236790     -0.843128
    5   H      5    1.2000  1.000     -0.895500      1.236790     -0.843128
    6   H      6    1.2000  1.000      0.000000      2.032820      0.490642
    7   H      7    1.2000  1.000     -0.000000     -2.032820      0.490642
    8   H      8    1.2000  1.000      0.895500     -1.236790     -0.843128
    9   H      9    1.2000  1.000     -0.895500     -1.236790     -0.843128
 ------------------------------------------------------------------------------
 GePol: Number of generator spheres                  =       9
 GePol: Total number of spheres                      =       9
 GePol: Number of exposed spheres                    =       9 (100.00%)
 GePol: Number of points                             =     758
 GePol: Average weight of points                     =       0.12
 GePol: Minimum weight of points                     =   0.13D-08
 GePol: Maximum weight of points                     =    0.17992
 GePol: Number of points with low weight             =      32
 GePol: Fraction of low-weight points (<1% of avg)   =       4.22%
 GePol: Cavity surface area                          =     92.134 Ang**2
 GePol: Cavity volume                                =     73.963 Ang**3
 ------------------------------------------------------------------------------
 Atomic radii for non-electrostatic terms: SMD-CDS.
 ------------------------------------------------------------------------------
 PCM non-electrostatic energy =         0.0007171162 Hartrees.
 Nuclear repulsion after PCM non-electrostatic terms =       83.8324782431 Hartrees.
 Leave Link  301 at Wed Jun 24 01:17:41 2026, MaxMem=  1879048192 cpu:               0.1 elap:               0.0
 (Enter /CH/g16/l302.exe)
 NPDir=0 NMtPBC=     1 NCelOv=     1 NCel=       1 NClECP=     1 NCelD=      1
         NCelK=      1 NCelE2=     1 NClLst=     1 CellRange=     0.0.
 One-electron integrals computed using PRISM.
 One-electron integral symmetry used in STVInt
   4 Symmetry operations used in ECPInt.
 ECPInt:  NShTT=    1653 NPrTT=    4740 LenC2=    1651 LenP2D=    4215.
 LDataN:  DoStor=T MaxTD1= 6 Len=  172
 NBasis=   129 RedAO= T EigKep=  1.08D-03  NBF=    46    20    24    39
 NBsUse=   129 1.00D-06 EigRej= -1.00D+00 NBFU=    46    20    24    39
 Precomputing XC quadrature grid using
 IXCGrd= 4 IRadAn=           5 IRanWt=          -1 IRanGd=           0 AccXCQ= 0.00D+00.
 Generated NRdTot=       0 NPtTot=           0 NUsed=           0 NTot=          32
 NSgBfM=   144   144   144   144   144 MxSgAt=     9 MxSgA2=     9.
 Leave Link  302 at Wed Jun 24 01:17:41 2026, MaxMem=  1879048192 cpu:               0.4 elap:               0.1
 (Enter /CH/g16/l303.exe)
 DipDrv:  MaxL=1.
 Leave Link  303 at Wed Jun 24 01:17:41 2026, MaxMem=  1879048192 cpu:               0.1 elap:               0.0
 (Enter /CH/g16/l401.exe)
 ExpMin= 9.52D-02 ExpMax= 2.70D+04 ExpMxC= 9.22D+02 IAcc=3 IRadAn=         5 AccDes= 0.00D+00
 Harris functional with IExCor=  402 and IRadAn=       5 diagonalized for initial guess.
 HarFok:  IExCor=  402 AccDes= 0.00D+00 IRadAn=         5 IDoV= 1 UseB2=F ITyADJ=14
 ICtDFT=  3500011 ScaDFX=  1.000000  1.000000  1.000000  1.000000
 FoFCou: FMM=F IPFlag=           0 FMFlag=      100000 FMFlg1=           0
         NFxFlg=           0 DoJE=T BraDBF=F KetDBF=T FulRan=T
         wScrn=  0.000000 ICntrl=       500 IOpCl=  0 I1Cent=   200000004 NGrid=           0
         NMat0=    1 NMatS0=      1 NMatT0=    0 NMatD0=    1 NMtDS0=    0 NMtDT0=    0
 Petite list used in FoFCou.
 Harris En= -155.121867979500    
 JPrj=0 DoOrth=F DoCkMO=F.
 Initial guess orbital symmetries:
       Occupied  (A1) (B2) (A1) (A1) (B2) (A1) (B2) (A1) (B1) (A2)
                 (B2) (A1) (B1)
       Virtual   (A1) (A1) (B2) (A1) (B1) (B2) (A2) (B2) (A1) (B1)
                 (A2) (B2) (A1) (B2) (A1) (A1) (B1) (A1) (B2) (B2)
                 (A2) (B2) (A1) (B1) (B1) (B2) (A1) (A2) (A1) (B2)
                 (A1) (A2) (A1) (B2) (B1) (B2) (B1) (A1) (A1) (A2)
                 (B2) (B1) (A1) (A2) (B2) (A2) (B1) (B2) (A1) (A1)
                 (B2) (A1) (B1) (A1) (B2) (B2) (A2) (B1) (A2) (A1)
                 (B2) (A1) (B1) (B2) (A1) (A2) (B2) (B1) (A2) (B2)
                 (A1) (A1) (B1) (B2) (A1) (B1) (A1) (B2) (A2) (A1)
                 (B2) (B1) (B1) (B2) (A2) (A1) (A2) (B2) (A2) (A1)
                 (B1) (A1) (B2) (B1) (A2) (B2) (A1) (A1) (B2) (A1)
                 (B2) (B1) (A1) (A2) (B2) (B1) (A1) (B2) (A1) (B1)
                 (A2) (B2) (A1) (A1) (B2) (A1)
 The electronic state of the initial guess is 1-A1.
 Leave Link  401 at Wed Jun 24 01:17:41 2026, MaxMem=  1879048192 cpu:               0.8 elap:               0.1
 (Enter /CH/g16/l502.exe)
 Keep R1 ints in memory in symmetry-blocked form, NReq=44077637.
 FoFCou: FMM=F IPFlag=           0 FMFlag=           0 FMFlg1=           0
         NFxFlg=           0 DoJE=F BraDBF=F KetDBF=F FulRan=T
         wScrn=  0.000000 ICntrl=       600 IOpCl=  0 I1Cent=           0 NGrid=           0
         NMat0=    1 NMatS0=   8385 NMatT0=    0 NMatD0=    1 NMtDS0=    0 NMtDT0=    0
 Petite list used in FoFCou.
 Closed shell SCF:
 Using DIIS extrapolation, IDIIS=  1040.
 NGot=  1879048192 LenX=  1870085692 LenY=  1870064515
 Requested convergence on RMS density matrix=1.00D-08 within 128 cycles.
 Requested convergence on MAX density matrix=1.00D-06.
 Requested convergence on             energy=1.00D-06.
 No special actions if energy rises.

 Cycle   1  Pass 1  IDiag  1:
 Inv3:  Mode=1 IEnd=     1723692.
 Iteration    1 A*A^-1 deviation from unit magnitude is 3.55D-15 for    594.
 Iteration    1 A*A^-1 deviation from orthogonality  is 1.96D-15 for    382    216.
 Iteration    1 A^-1*A deviation from unit magnitude is 3.55D-15 for    594.
 Iteration    1 A^-1*A deviation from orthogonality  is 1.88D-15 for    437    124.
 E= -155.009428017022    
 DIIS: error= 3.46D-02 at cycle   1 NSaved=   1.
 NSaved= 1 IEnMin= 1 EnMin= -155.009428017022     IErMin= 1 ErrMin= 3.46D-02
 ErrMax= 3.46D-02  0.00D+00 EMaxC= 1.00D-01 BMatC= 1.01D-01 BMatP= 1.01D-01
 IDIUse=3 WtCom= 6.54D-01 WtEn= 3.46D-01
 Coeff-Com:  0.100D+01
 Coeff-En:   0.100D+01
 Coeff:      0.100D+01
 Gap=     0.265 Goal=   None    Shift=    0.000
 GapD=    0.265 DampG=1.000 DampE=0.500 DampFc=0.5000 IDamp=-1.
 Damping current iteration by 5.00D-01
 RMSDP=4.29D-03 MaxDP=6.64D-02              OVMax= 1.61D-01

 Cycle   2  Pass 1  IDiag  1:
 E= -155.048760250402     Delta-E=       -0.039332233380 Rises=F Damp=T
 DIIS: error= 1.04D-02 at cycle   2 NSaved=   2.
 NSaved= 2 IEnMin= 2 EnMin= -155.048760250402     IErMin= 2 ErrMin= 1.04D-02
 ErrMax= 1.04D-02  0.00D+00 EMaxC= 1.00D-01 BMatC= 6.78D-03 BMatP= 1.01D-01
 IDIUse=3 WtCom= 8.96D-01 WtEn= 1.04D-01
 Coeff-Com:  0.801D-01 0.920D+00
 Coeff-En:   0.145D+00 0.855D+00
 Coeff:      0.868D-01 0.913D+00
 Gap=     0.321 Goal=   None    Shift=    0.000
 RMSDP=8.73D-04 MaxDP=1.38D-02 DE=-3.93D-02 OVMax= 1.07D-01

 Cycle   3  Pass 1  IDiag  1:
 E= -155.099161877487     Delta-E=       -0.050401627085 Rises=F Damp=F
 DIIS: error= 7.22D-03 at cycle   3 NSaved=   3.
 NSaved= 3 IEnMin= 3 EnMin= -155.099161877487     IErMin= 3 ErrMin= 7.22D-03
 ErrMax= 7.22D-03  0.00D+00 EMaxC= 1.00D-01 BMatC= 4.26D-03 BMatP= 6.78D-03
 IDIUse=3 WtCom= 9.28D-01 WtEn= 7.22D-02
 Coeff-Com: -0.163D-01 0.429D+00 0.588D+00
 Coeff-En:   0.000D+00 0.000D+00 0.100D+01
 Coeff:     -0.151D-01 0.398D+00 0.617D+00
 Gap=     0.302 Goal=   None    Shift=    0.000
 RMSDP=3.62D-04 MaxDP=9.10D-03 DE=-5.04D-02 OVMax= 1.76D-02

 Cycle   4  Pass 1  IDiag  1:
 E= -155.101459323471     Delta-E=       -0.002297445984 Rises=F Damp=F
 DIIS: error= 3.44D-03 at cycle   4 NSaved=   4.
 NSaved= 4 IEnMin= 4 EnMin= -155.101459323471     IErMin= 4 ErrMin= 3.44D-03
 ErrMax= 3.44D-03  0.00D+00 EMaxC= 1.00D-01 BMatC= 1.07D-03 BMatP= 4.26D-03
 IDIUse=3 WtCom= 9.66D-01 WtEn= 3.44D-02
 Coeff-Com: -0.164D-01 0.114D+00 0.355D+00 0.547D+00
 Coeff-En:   0.000D+00 0.000D+00 0.193D+00 0.807D+00
 Coeff:     -0.159D-01 0.110D+00 0.350D+00 0.556D+00
 Gap=     0.305 Goal=   None    Shift=    0.000
 RMSDP=1.22D-04 MaxDP=3.30D-03 DE=-2.30D-03 OVMax= 5.75D-03

 Cycle   5  Pass 1  IDiag  1:
 E= -155.102192213245     Delta-E=       -0.000732889774 Rises=F Damp=F
 DIIS: error= 3.51D-04 at cycle   5 NSaved=   5.
 NSaved= 5 IEnMin= 5 EnMin= -155.102192213245     IErMin= 5 ErrMin= 3.51D-04
 ErrMax= 3.51D-04  0.00D+00 EMaxC= 1.00D-01 BMatC= 1.50D-05 BMatP= 1.07D-03
 IDIUse=3 WtCom= 9.96D-01 WtEn= 3.51D-03
 Coeff-Com: -0.321D-02 0.574D-02 0.710D-01 0.177D+00 0.750D+00
 Coeff-En:   0.000D+00 0.000D+00 0.000D+00 0.000D+00 0.100D+01
 Coeff:     -0.320D-02 0.572D-02 0.707D-01 0.176D+00 0.750D+00
 Gap=     0.306 Goal=   None    Shift=    0.000
 RMSDP=1.68D-05 MaxDP=2.87D-04 DE=-7.33D-04 OVMax= 8.37D-04

 Cycle   6  Pass 1  IDiag  1:
 E= -155.102203277499     Delta-E=       -0.000011064254 Rises=F Damp=F
 DIIS: error= 2.98D-05 at cycle   6 NSaved=   6.
 NSaved= 6 IEnMin= 6 EnMin= -155.102203277499     IErMin= 6 ErrMin= 2.98D-05
 ErrMax= 2.98D-05  0.00D+00 EMaxC= 1.00D-01 BMatC= 6.50D-08 BMatP= 1.50D-05
 IDIUse=1 WtCom= 1.00D+00 WtEn= 0.00D+00
 Coeff-Com: -0.115D-03-0.720D-03 0.772D-02 0.204D-01 0.119D+00 0.853D+00
 Coeff:     -0.115D-03-0.720D-03 0.772D-02 0.204D-01 0.119D+00 0.853D+00
 Gap=     0.306 Goal=   None    Shift=    0.000
 RMSDP=2.29D-06 MaxDP=3.85D-05 DE=-1.11D-05 OVMax= 9.15D-05

 Cycle   7  Pass 1  IDiag  1:
 E= -155.102203338619     Delta-E=       -0.000000061120 Rises=F Damp=F
 DIIS: error= 5.90D-06 at cycle   7 NSaved=   7.
 NSaved= 7 IEnMin= 7 EnMin= -155.102203338619     IErMin= 7 ErrMin= 5.90D-06
 ErrMax= 5.90D-06  0.00D+00 EMaxC= 1.00D-01 BMatC= 2.14D-09 BMatP= 6.50D-08
 IDIUse=1 WtCom= 1.00D+00 WtEn= 0.00D+00
 Coeff-Com:  0.688D-04-0.255D-03-0.868D-03-0.140D-02-0.340D-02 0.151D+00
 Coeff-Com:  0.855D+00
 Coeff:      0.688D-04-0.255D-03-0.868D-03-0.140D-02-0.340D-02 0.151D+00
 Coeff:      0.855D+00
 Gap=     0.306 Goal=   None    Shift=    0.000
 RMSDP=2.39D-07 MaxDP=2.95D-06 DE=-6.11D-08 OVMax= 1.19D-05

 Cycle   8  Pass 1  IDiag  1:
 E= -155.102203340645     Delta-E=       -0.000000002026 Rises=F Damp=F
 DIIS: error= 5.84D-07 at cycle   8 NSaved=   8.
 NSaved= 8 IEnMin= 8 EnMin= -155.102203340645     IErMin= 8 ErrMin= 5.84D-07
 ErrMax= 5.84D-07  0.00D+00 EMaxC= 1.00D-01 BMatC= 2.23D-11 BMatP= 2.14D-09
 IDIUse=1 WtCom= 1.00D+00 WtEn= 0.00D+00
 Coeff-Com:  0.515D-06 0.260D-05-0.128D-03-0.180D-03-0.130D-02-0.758D-03
 Coeff-Com:  0.366D-01 0.966D+00
 Coeff:      0.515D-06 0.260D-05-0.128D-03-0.180D-03-0.130D-02-0.758D-03
 Coeff:      0.366D-01 0.966D+00
 Gap=     0.306 Goal=   None    Shift=    0.000
 RMSDP=2.81D-08 MaxDP=6.44D-07 DE=-2.03D-09 OVMax= 1.31D-06

 Cycle   9  Pass 1  IDiag  1:
 E= -155.102203340664     Delta-E=       -0.000000000019 Rises=F Damp=F
 DIIS: error= 3.43D-08 at cycle   9 NSaved=   9.
 NSaved= 9 IEnMin= 9 EnMin= -155.102203340664     IErMin= 9 ErrMin= 3.43D-08
 ErrMax= 3.43D-08  0.00D+00 EMaxC= 1.00D-01 BMatC= 1.27D-13 BMatP= 2.23D-11
 IDIUse=1 WtCom= 1.00D+00 WtEn= 0.00D+00
 Coeff-Com: -0.796D-06 0.233D-05-0.158D-05-0.674D-05-0.438D-04-0.135D-02
 Coeff-Com: -0.606D-02 0.639D-01 0.944D+00
 Coeff:     -0.796D-06 0.233D-05-0.158D-05-0.674D-05-0.438D-04-0.135D-02
 Coeff:     -0.606D-02 0.639D-01 0.944D+00
 Gap=     0.306 Goal=   None    Shift=    0.000
 RMSDP=3.81D-09 MaxDP=5.98D-08 DE=-1.92D-11 OVMax= 1.23D-07

 Error on total polarization charges =  0.02602
 SCF Done:  E(RB3LYP) =  -155.102203341     A.U. after    9 cycles
            NFock=  9  Conv=0.38D-08     -V/T= 2.0056
 KE= 1.542406661683D+02 PE=-5.300189449900D+02 EE= 1.368435972380D+02
 SMD-CDS (non-electrostatic) energy       (kcal/mol) =       0.45
 (included in total energy above)
 Leave Link  502 at Wed Jun 24 01:17:43 2026, MaxMem=  1879048192 cpu:               9.5 elap:               1.5
 (Enter /CH/g16/l601.exe)
 Copying SCF densities to generalized density rwf, IOpCl= 0 IROHF=0.

 **********************************************************************

            Population analysis using the SCF Density.

 **********************************************************************

 Orbital symmetries:
       Occupied  (A1) (B2) (A1) (A1) (B2) (A1) (B2) (A1) (B1) (A2)
                 (B2) (A1) (B1)
       Virtual   (A1) (B2) (A1) (A1) (B1) (B2) (A2) (B2) (A1) (B1)
                 (A2) (B2) (B2) (A1) (A1) (A1) (B2) (A1) (B1) (A2)
                 (B2) (A1) (B2) (B1) (B1) (B2) (A1) (A2) (A1) (B2)
                 (A1) (A2) (A1) (B1) (B2) (B2) (B1) (A1) (A1) (A2)
                 (B2) (B1) (A2) (A1) (B2) (A2) (B1) (B2) (A1) (A1)
                 (B2) (A1) (B1) (A1) (B2) (B2) (A2) (B1) (A2) (A1)
                 (B2) (A1) (B1) (B2) (A1) (A2) (B2) (B1) (A2) (B2)
                 (A1) (A1) (B1) (B2) (A1) (B1) (A1) (B2) (A2) (A1)
                 (B2) (B1) (B1) (B2) (A2) (A1) (A2) (B2) (A2) (A1)
                 (B1) (A1) (B2) (B1) (A2) (B2) (A1) (A1) (B2) (A1)
                 (B2) (B1) (A1) (A2) (B1) (B2) (A1) (B2) (A1) (B1)
                 (A2) (B2) (A1) (A1) (B2) (A1)
 The electronic state is 1-A1.
 Alpha  occ. eigenvalues --  -19.12707 -10.20624 -10.20623  -1.03602  -0.71560
 Alpha  occ. eigenvalues --   -0.62909  -0.47609  -0.46761  -0.46570  -0.38603
 Alpha  occ. eigenvalues --   -0.37020  -0.31993  -0.25877
 Alpha virt. eigenvalues --    0.04684   0.08544   0.08757   0.10953   0.11720
 Alpha virt. eigenvalues --    0.13307   0.15213   0.18427   0.20243   0.21247
 Alpha virt. eigenvalues --    0.22843   0.31696   0.33112   0.33714   0.34699
 Alpha virt. eigenvalues --    0.42019   0.43829   0.45028   0.45249   0.46831
 Alpha virt. eigenvalues --    0.47788   0.53369   0.53606   0.55574   0.64861
 Alpha virt. eigenvalues --    0.66102   0.71219   0.75926   0.79103   0.91650
 Alpha virt. eigenvalues --    0.93893   0.96257   1.02627   1.02765   1.03291
 Alpha virt. eigenvalues --    1.10600   1.38980   1.39827   1.50336   1.50374
 Alpha virt. eigenvalues --    1.51278   1.51881   1.54518   1.55439   1.55577
 Alpha virt. eigenvalues --    1.62269   1.63045   1.68909   1.74644   1.86320
 Alpha virt. eigenvalues --    1.92331   1.92396   1.93613   2.01500   2.04316
 Alpha virt. eigenvalues --    2.09957   2.10678   2.23029   2.25956   2.26803
 Alpha virt. eigenvalues --    2.29106   2.31950   2.39613   2.47098   2.47105
 Alpha virt. eigenvalues --    2.47625   2.51269   2.51988   2.55808   2.60874
 Alpha virt. eigenvalues --    2.62506   2.72087   2.77966   2.84558   3.00130
 Alpha virt. eigenvalues --    3.05504   3.06235   3.11420   3.13575   3.18729
 Alpha virt. eigenvalues --    3.19259   3.26925   3.31001   3.36653   3.37665
 Alpha virt. eigenvalues --    3.44299   3.51741   3.55924   3.58536   3.60152
 Alpha virt. eigenvalues --    3.63773   3.68028   3.72762   4.13071   4.18661
 Alpha virt. eigenvalues --    4.21099   4.24118   4.31037   4.34691   4.42254
 Alpha virt. eigenvalues --    4.68777   5.36404   5.40315   5.73981   5.82591
 Alpha virt. eigenvalues --    5.82838   6.13450   6.18101   6.66162   6.67243
 Alpha virt. eigenvalues --    6.82311   7.14353   7.14548  22.23840  22.34593
 Alpha virt. eigenvalues --   43.83527
          Condensed to atoms (all electrons):
               1          2          3          4          5          6
     1  O    8.069625   0.269147   0.269147  -0.050942  -0.050942  -0.034549
     2  C    0.269147   4.775819  -0.075824   0.411021   0.411021   0.392774
     3  C    0.269147  -0.075824   4.775819  -0.007887  -0.007887   0.009634
     4  H   -0.050942   0.411021  -0.007887   0.619237  -0.061191  -0.029151
     5  H   -0.050942   0.411021  -0.007887  -0.061191   0.619237  -0.029151
     6  H   -0.034549   0.392774   0.009634  -0.029151  -0.029151   0.560393
     7  H   -0.034549   0.009634   0.392774  -0.000435  -0.000435  -0.000143
     8  H   -0.050942  -0.007887   0.411021   0.018938  -0.006729  -0.000435
     9  H   -0.050942  -0.007887   0.411021  -0.006729   0.018938  -0.000435
               7          8          9
     1  O   -0.034549  -0.050942  -0.050942
     2  C    0.009634  -0.007887  -0.007887
     3  C    0.392774   0.411021   0.411021
     4  H   -0.000435   0.018938  -0.006729
     5  H   -0.000435  -0.006729   0.018938
     6  H   -0.000143  -0.000435  -0.000435
     7  H    0.560393  -0.029151  -0.029151
     8  H   -0.029151   0.619237  -0.061191
     9  H   -0.029151  -0.061191   0.619237
 Mulliken charges:
               1
     1  O   -0.335052
     2  C   -0.177817
     3  C   -0.177817
     4  H    0.107140
     5  H    0.107140
     6  H    0.131064
     7  H    0.131064
     8  H    0.107140
     9  H    0.107140
 Sum of Mulliken charges =   0.00000
 Mulliken charges with hydrogens summed into heavy atoms:
               1
     1  O   -0.335052
     2  C    0.167526
     3  C    0.167526
 Electronic spatial extent (au):  <R**2>=            188.5305
 Charge=              0.0000 electrons
 Dipole moment (field-independent basis, Debye):
    X=              0.0000    Y=             -0.0000    Z=             -1.4624  Tot=              1.4624
 Quadrupole moment (field-independent basis, Debye-Ang):
   XX=            -20.4328   YY=            -17.3253   ZZ=            -21.4441
   XY=              0.0000   XZ=              0.0000   YZ=             -0.0000
 Traceless Quadrupole moment (field-independent basis, Debye-Ang):
   XX=             -0.6987   YY=              2.4088   ZZ=             -1.7101
   XY=              0.0000   XZ=              0.0000   YZ=             -0.0000
 Octapole moment (field-independent basis, Debye-Ang**2):
  XXX=              0.0000  YYY=             -0.0000  ZZZ=              1.6326  XYY=             -0.0000
  XXY=             -0.0000  XXZ=             -0.3574  XZZ=              0.0000  YZZ=             -0.0000
  YYZ=              2.2701  XYZ=             -0.0000
 Hexadecapole moment (field-independent basis, Debye-Ang**3):
 XXXX=            -36.3274 YYYY=           -162.9474 ZZZZ=            -52.6751 XXXY=             -0.0000
 XXXZ=             -0.0000 YYYX=              0.0000 YYYZ=             -0.0000 ZZZX=             -0.0000
 ZZZY=              0.0000 XXYY=            -35.4353 XXZZ=            -13.9834 YYZZ=            -34.9609
 XXYZ=              0.0000 YYXZ=             -0.0000 ZZXY=             -0.0000
 N-N= 8.383247824306D+01 E-N=-5.300189441366D+02  KE= 1.542406661683D+02
 Symmetry A1   KE= 1.047412861548D+02
 Symmetry A2   KE= 2.111803191099D+00
 Symmetry B1   KE= 6.571771214540D+00
 Symmetry B2   KE= 4.081580560787D+01
 No NMR shielding tensors so no spin-rotation constants.
 Leave Link  601 at Wed Jun 24 01:17:43 2026, MaxMem=  1879048192 cpu:               0.4 elap:               0.1
 (Enter /CH/g16/l9999.exe)
 Unable to Open any file for archive entry.
 1\1\GINC-NODE0-CHCLUSTER\SP\RB3LYP\def2TZVP\C2H6O1\LS\24-Jun-2026\0\\#
 p B3LYP/def2TZVP EmpiricalDispersion=GD3BJ SCRF=(SMD,Solvent=Tetrahydr
 ofuran) int=ultrafine\\Me2O_tz\\0,1\O,0,0.,0.,0.58528\C,0,0.,1.16814,-
 0.19092\C,0,0.,-1.16814,-0.19092\H,0,0.8955,1.23679,-0.84313\H,0,-0.89
 55,1.23679,-0.84313\H,0,0.,2.03282,0.49064\H,0,0.,-2.03282,0.49064\H,0
 ,0.8955,-1.23679,-0.84313\H,0,-0.8955,-1.23679,-0.84313\\Version=ES64L
 -G16RevC.02\State=1-A1\HF=-155.1022033\RMSD=3.811e-09\Dipole=0.,0.,-0.
 5753424\Quadrupole=-0.5194702,1.7908597,-1.2713895,0.,0.,0.\PG=C02V [C
 2(O1),SGV(C2H2),X(H4)]\\@
 The archive entry for this job was punched.


 HE WHO LAUGHS LAST PROBABLY DIDN'T GET THE JOKE.
 Job cpu time:       0 days  0 hours  0 minutes 16.1 seconds.
 Elapsed time:       0 days  0 hours  0 minutes  2.1 seconds.
 File lengths (MBytes):  RWF=     21 Int=      0 D2E=      0 Chk=      2 Scr=      1
 Normal termination of Gaussian 16 at Wed Jun 24 01:17:43 2026.
