 Entering Gaussian System, Link 0=/CH/g16/g16
 Initial command:
 /CH/g16/l1.exe "/tmp/g16d3_phosphazene_2884047/Gau-2884064.inp" -scrdir="/tmp/g16d3_phosphazene_2884047/"
 Default is to use a total of  96 processors:
                               96 via shared-memory
                                1 via Linda
 Entering Link 1 = /CH/g16/l1.exe PID=   2884069.
  
 Copyright (c) 1988-2021, Gaussian, Inc.  All Rights Reserved.
  
 This is part of the Gaussian(R) 16 program.  It is based on
 the Gaussian(R) 09 system (copyright 2009, Gaussian, Inc.),
 the Gaussian(R) 03 system (copyright 2003, Gaussian, Inc.),
 the Gaussian(R) 98 system (copyright 1998, Gaussian, Inc.),
 the Gaussian(R) 94 system (copyright 1995, Gaussian, Inc.),
 the Gaussian 92(TM) system (copyright 1992, Gaussian, Inc.),
 the Gaussian 90(TM) system (copyright 1990, Gaussian, Inc.),
 the Gaussian 88(TM) system (copyright 1988, Gaussian, Inc.),
 the Gaussian 86(TM) system (copyright 1986, Carnegie Mellon
 University), and the Gaussian 82(TM) system (copyright 1983,
 Carnegie Mellon University). Gaussian is a federally registered
 trademark of Gaussian, Inc.
  
 This software contains proprietary and confidential information,
 including trade secrets, belonging to Gaussian, Inc.
  
 This software is provided under written license and may be
 used, copied, transmitted, or stored only in accord with that
 written license.
  
 The following legend is applicable only to US Government
 contracts under FAR:
  
                    RESTRICTED RIGHTS LEGEND
  
 Use, reproduction and disclosure by the US Government is
 subject to restrictions as set forth in subparagraphs (a)
 and (c) of the Commercial Computer Software - Restricted
 Rights clause in FAR 52.227-19.
  
 Gaussian, Inc.
 340 Quinnipiac St., Bldg. 40, Wallingford CT 06492
  
  
 ---------------------------------------------------------------
 Warning -- This program may not be used in any manner that
 competes with the business of Gaussian, Inc. or will provide
 assistance to any competitor of Gaussian, Inc.  The licensee
 of this program is prohibited from giving any competitor of
 Gaussian, Inc. access to this program.  By using this program,
 the user acknowledges that Gaussian, Inc. is engaged in the
 business of creating and licensing software in the field of
 computational chemistry and represents and warrants to the
 licensee that it is not a competitor of Gaussian, Inc. and that
 it will not use this program in any manner prohibited above.
 ---------------------------------------------------------------
  

 Cite this work as:
 Gaussian 16, Revision C.02,
 M. J. Frisch, G. W. Trucks, H. B. Schlegel, G. E. Scuseria, 
 M. A. Robb, J. R. Cheeseman, G. Scalmani, V. Barone, 
 G. A. Petersson, H. Nakatsuji, X. Li, M. Caricato, A. V. Marenich, 
 J. Bloino, B. G. Janesko, R. Gomperts, B. Mennucci, H. P. Hratchian, 
 J. V. Ortiz, A. F. Izmaylov, J. L. Sonnenberg, D. Williams-Young, 
 F. Ding, F. Lipparini, F. Egidi, J. Goings, B. Peng, A. Petrone, 
 T. Henderson, D. Ranasinghe, V. G. Zakrzewski, J. Gao, N. Rega, 
 G. Zheng, W. Liang, M. Hada, M. Ehara, K. Toyota, R. Fukuda, 
 J. Hasegawa, M. Ishida, T. Nakajima, Y. Honda, O. Kitao, H. Nakai, 
 T. Vreven, K. Throssell, J. A. Montgomery, Jr., J. E. Peralta, 
 F. Ogliaro, M. J. Bearpark, J. J. Heyd, E. N. Brothers, K. N. Kudin, 
 V. N. Staroverov, T. A. Keith, R. Kobayashi, J. Normand, 
 K. Raghavachari, A. P. Rendell, J. C. Burant, S. S. Iyengar, 
 J. Tomasi, M. Cossi, J. M. Millam, M. Klene, C. Adamo, R. Cammi, 
 J. W. Ochterski, R. L. Martin, K. Morokuma, O. Farkas, 
 J. B. Foresman, and D. J. Fox, Gaussian, Inc., Wallingford CT, 2019.
 
 ******************************************
 Gaussian 16:  ES64L-G16RevC.02  7-Dec-2021
                24-Jun-2026 
 ******************************************
 %chk=phosphazene.chk
 %nprocshared=8
 Will use up to    8 processors via shared memory.
 %mem=14GB
 ----------------------------------------------------------------------
 #p B3LYP/def2SVP EmpiricalDispersion=GD3BJ opt SCRF=(SMD,Solvent=Tetra
 hydrofuran) int=ultrafine
 ----------------------------------------------------------------------
 1/18=20,19=15,26=6,38=1/1,3;
 2/9=110,12=2,17=6,18=5,40=1/2;
 3/5=43,7=101,11=2,25=1,30=1,70=32201,71=1,72=20,74=-5,75=-5,124=41/1,2,3;
 4//1;
 5/5=2,38=5,53=20/2;
 6/7=2,8=2,9=2,10=2,28=1/1;
 7//1,2,3,16;
 1/18=20,19=15,26=6/3(2);
 2/9=110/2;
 99//99;
 2/9=110/2;
 3/5=43,7=101,11=2,25=1,30=1,70=32205,71=1,72=20,74=-5,75=-5,124=41/1,2,3;
 4/5=5,16=3,69=1/1;
 5/5=2,38=5,53=20/2;
 7//1,2,3,16;
 1/18=20,19=15,26=6/3(-5);
 2/9=110/2;
 6/7=2,8=2,9=2,10=2,19=2,28=1/1;
 99/9=1/99;
 Leave Link    1 at Wed Jun 24 00:57:37 2026, MaxMem=  1879048192 cpu:               3.5 elap:               0.1
 (Enter /CH/g16/l101.exe)
 -----------
 phosphazene
 -----------
 Symbolic Z-matrix:
 Charge =  0 Multiplicity = 1
 P                     0.        0.        0. 
 N                     1.55      0.        0.3 
 H                     1.95      0.85      0. 
 H                    -0.5       1.05      0.7 
 H                    -0.5      -1.05      0.7 
 H                    -0.4       0.       -1.25 
 
 ITRead=  0  0  0  0  0  0
 MicOpt= -1 -1 -1 -1 -1 -1
 NAtoms=      6 NQM=        6 NQMF=       0 NMMI=      0 NMMIF=      0
                NMic=       0 NMicF=      0.
                    Isotopes and Nuclear Properties:
 (Nuclear quadrupole moments (NQMom) in fm**2, nuclear magnetic moments (NMagM)
  in nuclear magnetons)

  Atom         1           2           3           4           5           6
 IAtWgt=          31          14           1           1           1           1
 AtmWgt=  30.9737634  14.0030740   1.0078250   1.0078250   1.0078250   1.0078250
 NucSpn=           1           2           1           1           1           1
 AtZEff=  -0.0000000  -0.0000000  -0.0000000  -0.0000000  -0.0000000  -0.0000000
 NQMom=    0.0000000   2.0440000   0.0000000   0.0000000   0.0000000   0.0000000
 NMagM=    1.1316000   0.4037610   2.7928460   2.7928460   2.7928460   2.7928460
 AtZNuc=  15.0000000   7.0000000   1.0000000   1.0000000   1.0000000   1.0000000
 Leave Link  101 at Wed Jun 24 00:57:38 2026, MaxMem=  1879048192 cpu:               0.4 elap:               0.4
 (Enter /CH/g16/l103.exe)

 GradGradGradGradGradGradGradGradGradGradGradGradGradGradGradGradGradGrad
 Berny optimization.
 Initialization pass.
                           ----------------------------
                           !    Initial Parameters    !
                           ! (Angstroms and Degrees)  !
 --------------------------                            --------------------------
 ! Name  Definition              Value          Derivative Info.                !
 --------------------------------------------------------------------------------
 ! R1    R(1,2)                  1.5788         estimate D2E/DX2                !
 ! R2    R(1,4)                  1.3574         estimate D2E/DX2                !
 ! R3    R(1,5)                  1.3574         estimate D2E/DX2                !
 ! R4    R(1,6)                  1.3124         estimate D2E/DX2                !
 ! R5    R(2,3)                  0.9862         estimate D2E/DX2                !
 ! A1    A(2,1,4)              105.2867         estimate D2E/DX2                !
 ! A2    A(2,1,5)              105.2867         estimate D2E/DX2                !
 ! A3    A(2,1,6)              118.6987         estimate D2E/DX2                !
 ! A4    A(4,1,5)              101.3466         estimate D2E/DX2                !
 ! A5    A(4,1,6)              112.2653         estimate D2E/DX2                !
 ! A6    A(5,1,6)              112.2653         estimate D2E/DX2                !
 ! A7    A(1,2,3)              109.9024         estimate D2E/DX2                !
 ! D1    D(4,1,2,3)            -60.2403         estimate D2E/DX2                !
 ! D2    D(5,1,2,3)           -166.8676         estimate D2E/DX2                !
 ! D3    D(6,1,2,3)             66.446          estimate D2E/DX2                !
 --------------------------------------------------------------------------------
 Trust Radius=3.00D-01 FncErr=5.00D-06 GrdErr=5.00D-06 EigMax=2.50D+02 EigMin=1.00D-04
 Number of steps in this run=     25 maximum allowed number of steps=    100.
 GradGradGradGradGradGradGradGradGradGradGradGradGradGradGradGradGradGrad

 Leave Link  103 at Wed Jun 24 00:57:38 2026, MaxMem=  1879048192 cpu:               0.0 elap:               0.0
 (Enter /CH/g16/l202.exe)
                          Input orientation:                          
 ---------------------------------------------------------------------
 Center     Atomic      Atomic             Coordinates (Angstroms)
 Number     Number       Type             X           Y           Z
 ---------------------------------------------------------------------
      1         15           0        0.000000    0.000000    0.000000
      2          7           0        1.550000    0.000000    0.300000
      3          1           0        1.950000    0.850000    0.000000
      4          1           0       -0.500000    1.050000    0.700000
      5          1           0       -0.500000   -1.050000    0.700000
      6          1           0       -0.400000    0.000000   -1.250000
 ---------------------------------------------------------------------
                    Distance matrix (angstroms):
                    1          2          3          4          5
     1  P    0.000000
     2  N    1.578765   0.000000
     3  H    2.127205   0.986154   0.000000
     4  H    1.357387   2.337734   2.555876   0.000000
     5  H    1.357387   2.337734   3.178443   2.100000   0.000000
     6  H    1.312440   2.490984   2.794190   2.216980   2.216980
                    6
     6  H    0.000000
 Stoichiometry    H4NP
 Framework group  C1[X(H4NP)]
 Deg. of freedom    12
 Full point group                 C1      NOp   1
 Largest Abelian subgroup         C1      NOp   1
 Largest concise Abelian subgroup C1      NOp   1
                         Standard orientation:                         
 ---------------------------------------------------------------------
 Center     Atomic      Atomic             Coordinates (Angstroms)
 Number     Number       Type             X           Y           Z
 ---------------------------------------------------------------------
      1         15           0        0.447574   -0.019017   -0.011037
      2          7           0       -1.123267    0.134507   -0.048276
      3          1           0       -1.550050   -0.724457    0.180934
      4          1           0        0.741122   -0.386845    1.262160
      5          1           0        0.931865    1.248679   -0.041173
      6          1           0        1.026320   -0.793669   -0.898431
 ---------------------------------------------------------------------
 Rotational constants (GHZ):          90.7302506          16.1400033          15.8322884
 Leave Link  202 at Wed Jun 24 00:57:38 2026, MaxMem=  1879048192 cpu:               0.0 elap:               0.0
 (Enter /CH/g16/l301.exe)
 Standard basis: def2SVP (5D, 7F)
 Ernie: Thresh=  0.10000D-02 Tol=  0.10000D-05 Strict=F.
 There are    54 symmetry adapted cartesian basis functions of A   symmetry.
 There are    52 symmetry adapted basis functions of A   symmetry.
    52 basis functions,    90 primitive gaussians,    54 cartesian basis functions
    13 alpha electrons       13 beta electrons
       nuclear repulsion energy        66.3740357594 Hartrees.
 IExCor=  402 DFT=T Ex+Corr=B3LYP ExCW=0 ScaHFX=  0.200000
 ScaDFX=  0.800000  0.720000  1.000000  0.810000 ScalE2=  1.000000  1.000000
 IRadAn=      5 IRanWt=     -1 IRanGd=            0 ICorTp=0 IEmpDi=141
 NAtoms=    6 NActive=    6 NUniq=    6 SFac= 1.00D+00 NAtFMM=   60 NAOKFM=F Big=F
 Integral buffers will be    131072 words long.
 Raffenetti 2 integral format.
 Two-electron integral symmetry is turned on.
 R6Disp:  Grimme-D3(BJ) Dispersion energy=       -0.0057629304 Hartrees.
 Nuclear repulsion after empirical dispersion term =       66.3682728289 Hartrees.
 ------------------------------------------------------------------------------
 Polarizable Continuum Model (PCM)
 =================================
 Model                : PCM.
 Atomic radii         : SMD-Coulomb.
 Polarization charges : Total charges.
 Charge compensation  : None.
 Solution method      : On-the-fly selection.
 Cavity type          : VdW (van der Waals Surface) (Alpha=1.000).
 Cavity algorithm     : GePol (No added spheres)
                        Default sphere list used, NSphG=    6.
                        Lebedev-Laikov grids with approx.  5.0 points / Ang**2.
                        Smoothing algorithm: York/Karplus (Gamma=1.0000).
                        Polarization charges: spherical gaussians, with
                                              point-specific exponents (IZeta= 3).
                        Self-potential: point-specific (ISelfS= 7).
                        Self-field    : sphere-specific E.n sum rule (ISelfD= 2).
 1st derivatives      : Analytical E(r).r(x)/FMM algorithm (CHGder, D1EAlg=3).
                        Cavity 1st derivative terms included.
 Solvent              : TetraHydroFuran, Eps=   7.425700 Eps(inf)=   1.974025
 ------------------------------------------------------------------------------
 Spheres list:
 ISph  on   Nord     Re0    Alpha      Xe            Ye            Ze
    1   P      1    2.1200  1.000      0.447574     -0.019017     -0.011037
    2   N      2    1.8900  1.000     -1.123267      0.134507     -0.048276
    3   H      3    1.2000  1.000     -1.550050     -0.724457      0.180934
    4   H      4    1.2000  1.000      0.741122     -0.386845      1.262160
    5   H      5    1.2000  1.000      0.931865      1.248679     -0.041173
    6   H      6    1.2000  1.000      1.026320     -0.793669     -0.898431
 ------------------------------------------------------------------------------
 GePol: Number of generator spheres                  =       6
 GePol: Total number of spheres                      =       6
 GePol: Number of exposed spheres                    =       6 (100.00%)
 GePol: Number of points                             =     566
 GePol: Average weight of points                     =       0.13
 GePol: Minimum weight of points                     =   0.12D-06
 GePol: Maximum weight of points                     =    0.20615
 GePol: Number of points with low weight             =      17
 GePol: Fraction of low-weight points (<1% of avg)   =       3.00%
 GePol: Cavity surface area                          =     76.017 Ang**2
 GePol: Cavity volume                                =     57.081 Ang**3
 ------------------------------------------------------------------------------
 Atomic radii for non-electrostatic terms: SMD-CDS.
 ------------------------------------------------------------------------------
 PCM non-electrostatic energy =         0.0035789857 Hartrees.
 Nuclear repulsion after PCM non-electrostatic terms =       66.3718518147 Hartrees.
 Leave Link  301 at Wed Jun 24 00:57:38 2026, MaxMem=  1879048192 cpu:               0.1 elap:               0.0
 (Enter /CH/g16/l302.exe)
 NPDir=0 NMtPBC=     1 NCelOv=     1 NCel=       1 NClECP=     1 NCelD=      1
         NCelK=      1 NCelE2=     1 NClLst=     1 CellRange=     0.0.
 One-electron integrals computed using PRISM.
 One-electron integral symmetry used in STVInt
   1 Symmetry operations used in ECPInt.
 ECPInt:  NShTT=     351 NPrTT=    1323 LenC2=     352 LenP2D=    1219.
 LDataN:  DoStor=T MaxTD1= 4 Len=   56
 NBasis=    52 RedAO= T EigKep=  8.87D-03  NBF=    52
 NBsUse=    52 1.00D-06 EigRej= -1.00D+00 NBFU=    52
 Precomputing XC quadrature grid using
 IXCGrd= 4 IRadAn=           5 IRanWt=          -1 IRanGd=           0 AccXCQ= 0.00D+00.
 Generated NRdTot=       0 NPtTot=           0 NUsed=           0 NTot=          32
 NSgBfM=    54    54    54    54    54 MxSgAt=     6 MxSgA2=     6.
 Leave Link  302 at Wed Jun 24 00:57:38 2026, MaxMem=  1879048192 cpu:               0.3 elap:               0.1
 (Enter /CH/g16/l303.exe)
 DipDrv:  MaxL=1.
 Leave Link  303 at Wed Jun 24 00:57:38 2026, MaxMem=  1879048192 cpu:               0.0 elap:               0.0
 (Enter /CH/g16/l401.exe)
 ExpMin= 1.05D-01 ExpMax= 8.00D+03 ExpMxC= 1.20D+03 IAcc=3 IRadAn=         5 AccDes= 0.00D+00
 Harris functional with IExCor=  402 and IRadAn=       5 diagonalized for initial guess.
 HarFok:  IExCor=  402 AccDes= 0.00D+00 IRadAn=         5 IDoV= 1 UseB2=F ITyADJ=14
 ICtDFT=  3500011 ScaDFX=  1.000000  1.000000  1.000000  1.000000
 FoFCou: FMM=F IPFlag=           0 FMFlag=      100000 FMFlg1=           0
         NFxFlg=           0 DoJE=T BraDBF=F KetDBF=T FulRan=T
         wScrn=  0.000000 ICntrl=       500 IOpCl=  0 I1Cent=   200000004 NGrid=           0
         NMat0=    1 NMatS0=      1 NMatT0=    0 NMatD0=    1 NMtDS0=    0 NMtDT0=    0
 Petite list used in FoFCou.
 Harris En= -398.327068049793    
 JPrj=0 DoOrth=F DoCkMO=F.
 Leave Link  401 at Wed Jun 24 00:57:38 2026, MaxMem=  1879048192 cpu:               0.6 elap:               0.1
 (Enter /CH/g16/l502.exe)
 Keep R1 ints in memory in canonical form, NReq=7966169.
 FoFCou: FMM=F IPFlag=           0 FMFlag=           0 FMFlg1=           0
         NFxFlg=           0 DoJE=F BraDBF=F KetDBF=F FulRan=T
         wScrn=  0.000000 ICntrl=       600 IOpCl=  0 I1Cent=           0 NGrid=           0
         NMat0=    1 NMatS0=   1378 NMatT0=    0 NMatD0=    1 NMtDS0=    0 NMtDT0=    0
 Symmetry not used in FoFCou.
 Two-electron integral symmetry not used.
 Closed shell SCF:
 Using DIIS extrapolation, IDIIS=  1040.
 NGot=  1879048192 LenX=  1878090905 LenY=  1878087548
 Requested convergence on RMS density matrix=1.00D-08 within 128 cycles.
 Requested convergence on MAX density matrix=1.00D-06.
 Requested convergence on             energy=1.00D-06.
 No special actions if energy rises.

 Cycle   1  Pass 1  IDiag  1:
 Inv3:  Mode=1 IEnd=      961068.
 Iteration    1 A*A^-1 deviation from unit magnitude is 2.66D-15 for     24.
 Iteration    1 A*A^-1 deviation from orthogonality  is 2.64D-15 for    314     50.
 Iteration    1 A^-1*A deviation from unit magnitude is 2.66D-15 for     24.
 Iteration    1 A^-1*A deviation from orthogonality  is 1.67D-15 for    502    250.
 E= -398.134530998275    
 DIIS: error= 5.00D-02 at cycle   1 NSaved=   1.
 NSaved= 1 IEnMin= 1 EnMin= -398.134530998275     IErMin= 1 ErrMin= 5.00D-02
 ErrMax= 5.00D-02  0.00D+00 EMaxC= 1.00D-01 BMatC= 1.92D-01 BMatP= 1.92D-01
 IDIUse=3 WtCom= 5.00D-01 WtEn= 5.00D-01
 Coeff-Com:  0.100D+01
 Coeff-En:   0.100D+01
 Coeff:      0.100D+01
 Gap=     0.059 Goal=   None    Shift=    0.000
 GapD=    0.059 DampG=0.500 DampE=0.500 DampFc=0.2500 IDamp=-1.
 Damping current iteration by 2.50D-01
 RMSDP=3.06D-02 MaxDP=3.22D-01              OVMax= 4.32D-01

 Cycle   2  Pass 1  IDiag  1:
 E= -398.191779910512     Delta-E=       -0.057248912236 Rises=F Damp=T
 DIIS: error= 1.46D-02 at cycle   2 NSaved=   2.
 NSaved= 2 IEnMin= 2 EnMin= -398.191779910512     IErMin= 2 ErrMin= 1.46D-02
 ErrMax= 1.46D-02  0.00D+00 EMaxC= 1.00D-01 BMatC= 2.21D-02 BMatP= 1.92D-01
 IDIUse=3 WtCom= 8.54D-01 WtEn= 1.46D-01
 Coeff-Com: -0.443D+00 0.144D+01
 Coeff-En:   0.000D+00 0.100D+01
 Coeff:     -0.378D+00 0.138D+01
 Gap=     0.214 Goal=   None    Shift=    0.000
 RMSDP=4.35D-03 MaxDP=4.70D-02 DE=-5.72D-02 OVMax= 3.26D-01

 Cycle   3  Pass 1  IDiag  1:
 E= -398.301664612248     Delta-E=       -0.109884701737 Rises=F Damp=F
 DIIS: error= 3.58D-03 at cycle   3 NSaved=   3.
 NSaved= 3 IEnMin= 3 EnMin= -398.301664612248     IErMin= 3 ErrMin= 3.58D-03
 ErrMax= 3.58D-03  0.00D+00 EMaxC= 1.00D-01 BMatC= 1.07D-03 BMatP= 2.21D-02
 IDIUse=3 WtCom= 9.64D-01 WtEn= 3.58D-02
 Coeff-Com: -0.153D+00 0.350D+00 0.803D+00
 Coeff-En:   0.000D+00 0.000D+00 0.100D+01
 Coeff:     -0.148D+00 0.338D+00 0.810D+00
 Gap=     0.237 Goal=   None    Shift=    0.000
 RMSDP=8.29D-04 MaxDP=8.85D-03 DE=-1.10D-01 OVMax= 1.33D-02

 Cycle   4  Pass 1  IDiag  1:
 E= -398.303002934341     Delta-E=       -0.001338322092 Rises=F Damp=F
 DIIS: error= 7.92D-04 at cycle   4 NSaved=   4.
 NSaved= 4 IEnMin= 4 EnMin= -398.303002934341     IErMin= 4 ErrMin= 7.92D-04
 ErrMax= 7.92D-04  0.00D+00 EMaxC= 1.00D-01 BMatC= 5.23D-05 BMatP= 1.07D-03
 IDIUse=3 WtCom= 9.92D-01 WtEn= 7.92D-03
 Coeff-Com: -0.423D-01 0.794D-01 0.140D+00 0.823D+00
 Coeff-En:   0.000D+00 0.000D+00 0.000D+00 0.100D+01
 Coeff:     -0.420D-01 0.787D-01 0.139D+00 0.824D+00
 Gap=     0.236 Goal=   None    Shift=    0.000
 RMSDP=1.95D-04 MaxDP=4.17D-03 DE=-1.34D-03 OVMax= 2.14D-03

 Cycle   5  Pass 1  IDiag  1:
 E= -398.303047917321     Delta-E=       -0.000044982980 Rises=F Damp=F
 DIIS: error= 2.82D-04 at cycle   5 NSaved=   5.
 NSaved= 5 IEnMin= 5 EnMin= -398.303047917321     IErMin= 5 ErrMin= 2.82D-04
 ErrMax= 2.82D-04  0.00D+00 EMaxC= 1.00D-01 BMatC= 8.53D-06 BMatP= 5.23D-05
 IDIUse=3 WtCom= 9.97D-01 WtEn= 2.82D-03
 Coeff-Com: -0.451D-02-0.981D-04-0.340D-01 0.290D+00 0.748D+00
 Coeff-En:   0.000D+00 0.000D+00 0.000D+00 0.000D+00 0.100D+01
 Coeff:     -0.449D-02-0.978D-04-0.339D-01 0.290D+00 0.749D+00
 Gap=     0.235 Goal=   None    Shift=    0.000
 RMSDP=7.00D-05 MaxDP=1.68D-03 DE=-4.50D-05 OVMax= 9.17D-04

 Cycle   6  Pass 1  IDiag  1:
 E= -398.303057075992     Delta-E=       -0.000009158671 Rises=F Damp=F
 DIIS: error= 1.55D-05 at cycle   6 NSaved=   6.
 NSaved= 6 IEnMin= 6 EnMin= -398.303057075992     IErMin= 6 ErrMin= 1.55D-05
 ErrMax= 1.55D-05  0.00D+00 EMaxC= 1.00D-01 BMatC= 2.45D-08 BMatP= 8.53D-06
 IDIUse=1 WtCom= 1.00D+00 WtEn= 0.00D+00
 Coeff-Com: -0.368D-03-0.156D-03-0.568D-02 0.208D-01 0.761D-01 0.909D+00
 Coeff:     -0.368D-03-0.156D-03-0.568D-02 0.208D-01 0.761D-01 0.909D+00
 Gap=     0.235 Goal=   None    Shift=    0.000
 RMSDP=6.09D-06 MaxDP=5.24D-05 DE=-9.16D-06 OVMax= 9.20D-05

 Cycle   7  Pass 1  IDiag  1:
 E= -398.303057110516     Delta-E=       -0.000000034524 Rises=F Damp=F
 DIIS: error= 4.84D-06 at cycle   7 NSaved=   7.
 NSaved= 7 IEnMin= 7 EnMin= -398.303057110516     IErMin= 7 ErrMin= 4.84D-06
 ErrMax= 4.84D-06  0.00D+00 EMaxC= 1.00D-01 BMatC= 1.58D-09 BMatP= 2.45D-08
 IDIUse=1 WtCom= 1.00D+00 WtEn= 0.00D+00
 Coeff-Com:  0.400D-04-0.125D-04-0.161D-03-0.491D-02-0.113D-01 0.157D+00
 Coeff-Com:  0.859D+00
 Coeff:      0.400D-04-0.125D-04-0.161D-03-0.491D-02-0.113D-01 0.157D+00
 Coeff:      0.859D+00
 Gap=     0.235 Goal=   None    Shift=    0.000
 RMSDP=1.49D-06 MaxDP=1.33D-05 DE=-3.45D-08 OVMax= 2.67D-05

 Cycle   8  Pass 1  IDiag  1:
 E= -398.303057112736     Delta-E=       -0.000000002219 Rises=F Damp=F
 DIIS: error= 6.77D-07 at cycle   8 NSaved=   8.
 NSaved= 8 IEnMin= 8 EnMin= -398.303057112736     IErMin= 8 ErrMin= 6.77D-07
 ErrMax= 6.77D-07  0.00D+00 EMaxC= 1.00D-01 BMatC= 3.72D-11 BMatP= 1.58D-09
 IDIUse=1 WtCom= 1.00D+00 WtEn= 0.00D+00
 Coeff-Com:  0.642D-05 0.156D-04 0.125D-03-0.123D-02-0.354D-02-0.112D-01
 Coeff-Com:  0.996D-01 0.916D+00
 Coeff:      0.642D-05 0.156D-04 0.125D-03-0.123D-02-0.354D-02-0.112D-01
 Coeff:      0.996D-01 0.916D+00
 Gap=     0.235 Goal=   None    Shift=    0.000
 RMSDP=2.97D-07 MaxDP=2.85D-06 DE=-2.22D-09 OVMax= 5.50D-06

 Cycle   9  Pass 1  IDiag  1:
 E= -398.303057112796     Delta-E=       -0.000000000060 Rises=F Damp=F
 DIIS: error= 9.14D-08 at cycle   9 NSaved=   9.
 NSaved= 9 IEnMin= 9 EnMin= -398.303057112796     IErMin= 9 ErrMin= 9.14D-08
 ErrMax= 9.14D-08  0.00D+00 EMaxC= 1.00D-01 BMatC= 7.66D-13 BMatP= 3.72D-11
 IDIUse=1 WtCom= 1.00D+00 WtEn= 0.00D+00
 Coeff-Com: -0.142D-05 0.152D-05 0.949D-06 0.108D-04 0.139D-03-0.435D-02
 Coeff-Com: -0.119D-01 0.780D-01 0.938D+00
 Coeff:     -0.142D-05 0.152D-05 0.949D-06 0.108D-04 0.139D-03-0.435D-02
 Coeff:     -0.119D-01 0.780D-01 0.938D+00
 Gap=     0.235 Goal=   None    Shift=    0.000
 RMSDP=5.19D-08 MaxDP=4.33D-07 DE=-6.00D-11 OVMax= 9.28D-07

 Cycle  10  Pass 1  IDiag  1:
 E= -398.303057112796     Delta-E=       -0.000000000001 Rises=F Damp=F
 DIIS: error= 1.24D-08 at cycle  10 NSaved=  10.
 NSaved=10 IEnMin=10 EnMin= -398.303057112796     IErMin=10 ErrMin= 1.24D-08
 ErrMax= 1.24D-08  0.00D+00 EMaxC= 1.00D-01 BMatC= 1.80D-14 BMatP= 7.66D-13
 IDIUse=1 WtCom= 1.00D+00 WtEn= 0.00D+00
 Coeff-Com:  0.115D-06-0.395D-06-0.901D-06 0.156D-04 0.635D-04-0.384D-03
 Coeff-Com: -0.290D-02-0.980D-02 0.925D-01 0.920D+00
 Coeff:      0.115D-06-0.395D-06-0.901D-06 0.156D-04 0.635D-04-0.384D-03
 Coeff:     -0.290D-02-0.980D-02 0.925D-01 0.920D+00
 Gap=     0.235 Goal=   None    Shift=    0.000
 RMSDP=7.06D-09 MaxDP=5.19D-08 DE=-5.68D-13 OVMax= 1.43D-07

 Error on total polarization charges =  0.01942
 SCF Done:  E(RB3LYP) =  -398.303057113     A.U. after   10 cycles
            NFock= 10  Conv=0.71D-08     -V/T= 2.0032
 KE= 3.970391674589D+02 PE=-1.077137478924D+03 EE= 2.154234025372D+02
 SMD-CDS (non-electrostatic) energy       (kcal/mol) =       2.25
 (included in total energy above)
 Leave Link  502 at Wed Jun 24 00:57:39 2026, MaxMem=  1879048192 cpu:               5.9 elap:               0.8
 (Enter /CH/g16/l601.exe)
 Copying SCF densities to generalized density rwf, IOpCl= 0 IROHF=0.

 **********************************************************************

            Population analysis using the SCF Density.

 **********************************************************************

 Orbital symmetries:
       Occupied  (A) (A) (A) (A) (A) (A) (A) (A) (A) (A) (A) (A)
                 (A)
       Virtual   (A) (A) (A) (A) (A) (A) (A) (A) (A) (A) (A) (A)
                 (A) (A) (A) (A) (A) (A) (A) (A) (A) (A) (A) (A)
                 (A) (A) (A) (A) (A) (A) (A) (A) (A) (A) (A) (A)
                 (A) (A) (A)
 The electronic state is 1-A.
 Alpha  occ. eigenvalues --  -77.10211 -14.22746  -6.59760  -4.76348  -4.76272
 Alpha  occ. eigenvalues --   -4.76181  -0.81198  -0.62952  -0.45768  -0.43623
 Alpha  occ. eigenvalues --   -0.39130  -0.24273  -0.19898
 Alpha virt. eigenvalues --    0.03643   0.06650   0.08621   0.12181   0.15176
 Alpha virt. eigenvalues --    0.31085   0.31890   0.42289   0.45537   0.50099
 Alpha virt. eigenvalues --    0.52581   0.60555   0.64541   0.66529   0.70495
 Alpha virt. eigenvalues --    0.81052   0.84388   0.91073   0.98474   1.03848
 Alpha virt. eigenvalues --    1.04767   1.13332   1.35198   1.43021   1.44498
 Alpha virt. eigenvalues --    1.53217   1.65891   1.71873   1.75436   1.81705
 Alpha virt. eigenvalues --    2.11332   2.18699   2.29260   2.34971   2.45310
 Alpha virt. eigenvalues --    2.63296   2.65664   2.84836   3.32149
          Condensed to atoms (all electrons):
               1          2          3          4          5          6
     1  P   12.866319   0.529788  -0.042326   0.361623   0.381148   0.286622
     2  N    0.529788   6.895911   0.338356  -0.041593  -0.045096  -0.029939
     3  H   -0.042326   0.338356   0.624373  -0.007579   0.007761  -0.004306
     4  H    0.361623  -0.041593  -0.007579   0.796193  -0.032511  -0.043152
     5  H    0.381148  -0.045096   0.007761  -0.032511   0.716355  -0.028120
     6  H    0.286622  -0.029939  -0.004306  -0.043152  -0.028120   0.839497
 Mulliken charges:
               1
     1  P    0.616827
     2  N   -0.647427
     3  H    0.083720
     4  H   -0.032981
     5  H    0.000463
     6  H   -0.020602
 Sum of Mulliken charges =  -0.00000
 Mulliken charges with hydrogens summed into heavy atoms:
               1
     1  P    0.563707
     2  N   -0.563707
 Electronic spatial extent (au):  <R**2>=            125.1941
 Charge=             -0.0000 electrons
 Dipole moment (field-independent basis, Debye):
    X=              4.3738    Y=             -1.7408    Z=              0.3215  Tot=              4.7184
 Quadrupole moment (field-independent basis, Debye-Ang):
   XX=            -22.5729   YY=            -19.0863   ZZ=            -20.2967
   XY=              2.9001   XZ=             -1.1209   YZ=             -0.0666
 Traceless Quadrupole moment (field-independent basis, Debye-Ang):
   XX=             -1.9210   YY=              1.5657   ZZ=              0.3553
   XY=              2.9001   XZ=             -1.1209   YZ=             -0.0666
 Octapole moment (field-independent basis, Debye-Ang**2):
  XXX=              6.8929  YYY=             -1.3697  ZZZ=              0.0916  XYY=              1.1368
  XXY=             -4.1331  XXZ=              1.1451  XZZ=              1.8998  YZZ=             -0.4759
  YYZ=              0.0878  XYZ=              0.4001
 Hexadecapole moment (field-independent basis, Debye-Ang**3):
 XXXX=           -105.1396 YYYY=            -33.7884 ZZZZ=            -33.9612 XXXY=              7.6147
 XXXZ=             -2.7717 YYYX=              3.4220 YYYZ=              0.0618 ZZZX=             -1.2830
 ZZZY=              0.0833 XXYY=            -22.5455 XXZZ=            -24.4291 YYZZ=            -11.6845
 XXYZ=             -0.1902 YYXZ=             -0.5304 ZZXY=              0.8708
 N-N= 6.637185181468D+01 E-N=-1.077137478549D+03  KE= 3.970391674589D+02
 No NMR shielding tensors so no spin-rotation constants.
 Leave Link  601 at Wed Jun 24 00:57:39 2026, MaxMem=  1879048192 cpu:               0.3 elap:               0.1
 (Enter /CH/g16/l701.exe)
 ... and contract with generalized density number  0.
 Compute integral first derivatives.
 R6Disp: Adding Grimme-D3(BJ) dispersion energy 1st derivatives to the gradient.
   1 Symmetry operations used in ECPInt.
 ECPInt:  NShTT=     351 NPrTT=    1323 LenC2=     352 LenP2D=    1219.
 LDataN:  DoStor=T MaxTD1= 5 Len=  102
 D1PCM: PCM CHGder 1st derivatives, ID1Alg=3 FixD1E=F DoIter=F DoCFld=F I1PDM=0.
 GePol: Maximum number of non-zero 1st derivatives   =     300
 Leave Link  701 at Wed Jun 24 00:57:39 2026, MaxMem=  1879048192 cpu:               1.3 elap:               0.2
 (Enter /CH/g16/l702.exe)
 L702 exits ... SP integral derivatives will be done elsewhere.
 Leave Link  702 at Wed Jun 24 00:57:39 2026, MaxMem=  1879048192 cpu:               0.0 elap:               0.0
 (Enter /CH/g16/l703.exe)
 Integral derivatives from FoFJK, PRISM(SPDF).
 Compute integral first derivatives, UseDBF=F ICtDFT=           0.
 Calling FoFJK, ICntrl=      2127 FMM=F ISym2X=0 I1Cent= 0 IOpClX= 0 NMat=1 NMatS=1 NMatT=0.
 FoFJK:  IHMeth= 1 ICntrl=    2127 DoSepK=F KAlg= 0 I1Cent=           0 FoldK=F
 IRaf=         0 NMat=       1 IRICut=       1 DoRegI=T DoRafI=F ISym2E= 0 IDoP0=0 IntGTp=1.
 FoFCou: FMM=F IPFlag=           0 FMFlag=      100000 FMFlg1=         800
         NFxFlg=           0 DoJE=F BraDBF=F KetDBF=F FulRan=T
         wScrn=  0.000000 ICntrl=      2127 IOpCl=  0 I1Cent=           0 NGrid=           0
         NMat0=    1 NMatS0=      1 NMatT0=    0 NMatD0=    1 NMtDS0=    0 NMtDT0=    0
 Symmetry not used in FoFCou.
 Leave Link  703 at Wed Jun 24 00:57:39 2026, MaxMem=  1879048192 cpu:               1.0 elap:               0.2
 (Enter /CH/g16/l716.exe)
 Dipole        = 1.72078245D+00-6.84867212D-01 1.26493169D-01
 ***** Axes restored to original set *****
 -------------------------------------------------------------------
 Center     Atomic                   Forces (Hartrees/Bohr)
 Number     Number              X              Y              Z
 -------------------------------------------------------------------
      1       15           0.066577758    0.005697473    0.056879061
      2        7           0.008993834   -0.038532740    0.005142707
      3        1           0.016243984    0.029545106   -0.011273943
      4        1          -0.036995818    0.027284432    0.001651793
      5        1          -0.020186881   -0.024201572    0.001756776
      6        1          -0.034632877    0.000207301   -0.054156394
 -------------------------------------------------------------------
 Cartesian Forces:  Max     0.066577758 RMS     0.031447348
 Leave Link  716 at Wed Jun 24 00:57:39 2026, MaxMem=  1879048192 cpu:               0.0 elap:               0.0
 (Enter /CH/g16/l103.exe)

 GradGradGradGradGradGradGradGradGradGradGradGradGradGradGradGradGradGrad
 Berny optimization.
 FormGI is forming the generalized inverse of G from B-inverse, IUseBI=4.
 Internal  Forces:  Max     0.062136642 RMS     0.028471386
 Search for a local minimum.
 Step number   1 out of a maximum of   25
 All quantities printed in internal units (Hartrees-Bohrs-Radians)
 RMS Force = .28471D-01 SwitMx=.10000D-02 MixMth= 1
 Mixed Optimization -- RFO/linear search
 Second derivative matrix not updated -- first step.
 The second derivative matrix:
                          R1        R2        R3        R4        R5
           R1           0.55553
           R2           0.00000   0.25079
           R3           0.00000   0.00000   0.25079
           R4           0.00000   0.00000   0.00000   0.28756
           R5           0.00000   0.00000   0.00000   0.00000   0.50208
           A1           0.00000   0.00000   0.00000   0.00000   0.00000
           A2           0.00000   0.00000   0.00000   0.00000   0.00000
           A3           0.00000   0.00000   0.00000   0.00000   0.00000
           A4           0.00000   0.00000   0.00000   0.00000   0.00000
           A5           0.00000   0.00000   0.00000   0.00000   0.00000
           A6           0.00000   0.00000   0.00000   0.00000   0.00000
           A7           0.00000   0.00000   0.00000   0.00000   0.00000
           D1           0.00000   0.00000   0.00000   0.00000   0.00000
           D2           0.00000   0.00000   0.00000   0.00000   0.00000
           D3           0.00000   0.00000   0.00000   0.00000   0.00000
                          A1        A2        A3        A4        A5
           A1           0.16000
           A2           0.00000   0.16000
           A3           0.00000   0.00000   0.16000
           A4           0.00000   0.00000   0.00000   0.16000
           A5           0.00000   0.00000   0.00000   0.00000   0.16000
           A6           0.00000   0.00000   0.00000   0.00000   0.00000
           A7           0.00000   0.00000   0.00000   0.00000   0.00000
           D1           0.00000   0.00000   0.00000   0.00000   0.00000
           D2           0.00000   0.00000   0.00000   0.00000   0.00000
           D3           0.00000   0.00000   0.00000   0.00000   0.00000
                          A6        A7        D1        D2        D3
           A6           0.16000
           A7           0.00000   0.16000
           D1           0.00000   0.00000   0.03694
           D2           0.00000   0.00000   0.00000   0.03694
           D3           0.00000   0.00000   0.00000   0.00000   0.03694
 ITU=  0
     Eigenvalues ---    0.03694   0.10233   0.11793   0.16000   0.16000
     Eigenvalues ---    0.16000   0.16000   0.25079   0.25079   0.28756
     Eigenvalues ---    0.50208   0.55553
 RFO step:  Lambda=-4.42700938D-02 EMin= 3.69378733D-02
 Linear search not attempted -- first point.
 Maximum step size (   0.300) exceeded in Quadratic search.
    -- Step size scaled by   0.724
 Iteration  1 RMS(Cart)=  0.09796025 RMS(Int)=  0.00633617
 Iteration  2 RMS(Cart)=  0.00520499 RMS(Int)=  0.00266496
 Iteration  3 RMS(Cart)=  0.00002757 RMS(Int)=  0.00266487
 Iteration  4 RMS(Cart)=  0.00000012 RMS(Int)=  0.00266487
 ITry= 1 IFail=0 DXMaxC= 2.54D-01 DCOld= 1.00D+10 DXMaxT= 3.00D-01 DXLimC= 3.00D+00 Rises=F
 Variable       Old X    -DE/DX   Delta X   Delta X   Delta X     New X
                                 (Linear)    (Quad)   (Total)
    R1        2.98343   0.02362   0.00000   0.02851   0.02851   3.01194
    R2        2.56509   0.03559   0.00000   0.08732   0.08732   2.65241
    R3        2.56509   0.02706   0.00000   0.06639   0.06639   2.63148
    R4        2.48015   0.06214   0.00000   0.13556   0.13556   2.61571
    R5        1.86356   0.03547   0.00000   0.04700   0.04700   1.91056
    A1        1.83760   0.04672   0.00000   0.17128   0.16680   2.00440
    A2        1.83760   0.01401   0.00000   0.04689   0.04362   1.88122
    A3        2.07168   0.00811   0.00000   0.02451   0.02232   2.09400
    A4        1.76883  -0.00621   0.00000  -0.01009  -0.01585   1.75298
    A5        1.95940  -0.03383   0.00000  -0.11722  -0.12010   1.83930
    A6        1.95940  -0.02586   0.00000  -0.10201  -0.10254   1.85686
    A7        1.91816   0.00345   0.00000   0.01222   0.01222   1.93038
    D1       -1.05139   0.00402   0.00000   0.01345   0.01630  -1.03509
    D2       -2.91239  -0.01143   0.00000  -0.05550  -0.05984  -2.97223
    D3        1.15970   0.00536   0.00000   0.02372   0.02521   1.18491
         Item               Value     Threshold  Converged?
 Maximum Force            0.062137     0.000450     NO 
 RMS     Force            0.028471     0.000300     NO 
 Maximum Displacement     0.253568     0.001800     NO 
 RMS     Displacement     0.098378     0.001200     NO 
 Predicted change in Energy=-2.253270D-02
 Lowest energy point so far.  Saving SCF results.
 GradGradGradGradGradGradGradGradGradGradGradGradGradGradGradGradGradGrad

 Leave Link  103 at Wed Jun 24 00:57:39 2026, MaxMem=  1879048192 cpu:               0.0 elap:               0.0
 (Enter /CH/g16/l202.exe)
                          Input orientation:                          
 ---------------------------------------------------------------------
 Center     Atomic      Atomic             Coordinates (Angstroms)
 Number     Number       Type             X           Y           Z
 ---------------------------------------------------------------------
      1         15           0        0.042079    0.021939    0.043209
      2          7           0        1.615125   -0.015823    0.297098
      3          1           0        2.046903    0.842705   -0.017020
      4          1           0       -0.634182    1.069917    0.687016
      5          1           0       -0.519669   -1.075848    0.690059
      6          1           0       -0.450256    0.007110   -1.250362
 ---------------------------------------------------------------------
                    Distance matrix (angstroms):
                    1          2          3          4          5
     1  P    0.000000
     2  N    1.593851   0.000000
     3  H    2.167165   1.011025   0.000000
     4  H    1.403594   2.527895   2.781279   0.000000
     5  H    1.392520   2.415661   3.281478   2.148821   0.000000
     6  H    1.384175   2.580884   2.907775   2.217391   2.223252
                    6
     6  H    0.000000
 Stoichiometry    H4NP
 Framework group  C1[X(H4NP)]
 Deg. of freedom    12
 Full point group                 C1      NOp   1
 RotChk:  IX=0 Diff= 1.93D-01
 Largest Abelian subgroup         C1      NOp   1
 Largest concise Abelian subgroup C1      NOp   1
                         Standard orientation:                         
 ---------------------------------------------------------------------
 Center     Atomic      Atomic             Coordinates (Angstroms)
 Number     Number       Type             X           Y           Z
 ---------------------------------------------------------------------
      1         15           0        0.439142   -0.014380   -0.008242
      2          7           0       -1.147525    0.136259   -0.020749
      3          1           0       -1.591327   -0.763932    0.101181
      4          1           0        0.969771   -0.567148    1.167750
      5          1           0        0.987445    1.264567    0.044390
      6          1           0        1.079657   -0.671607   -1.044452
 ---------------------------------------------------------------------
 Rotational constants (GHZ):          89.0449970          15.5058499          15.1837895
 Leave Link  202 at Wed Jun 24 00:57:39 2026, MaxMem=  1879048192 cpu:               0.0 elap:               0.0
 (Enter /CH/g16/l301.exe)
 Standard basis: def2SVP (5D, 7F)
 Ernie: Thresh=  0.10000D-02 Tol=  0.10000D-05 Strict=F.
 There are    54 symmetry adapted cartesian basis functions of A   symmetry.
 There are    52 symmetry adapted basis functions of A   symmetry.
    52 basis functions,    90 primitive gaussians,    54 cartesian basis functions
    13 alpha electrons       13 beta electrons
       nuclear repulsion energy        64.9682713278 Hartrees.
 IExCor=  402 DFT=T Ex+Corr=B3LYP ExCW=0 ScaHFX=  0.200000
 ScaDFX=  0.800000  0.720000  1.000000  0.810000 ScalE2=  1.000000  1.000000
 IRadAn=      5 IRanWt=     -1 IRanGd=            0 ICorTp=0 IEmpDi=141
 NAtoms=    6 NActive=    6 NUniq=    6 SFac= 1.00D+00 NAtFMM=   60 NAOKFM=F Big=F
 Integral buffers will be    131072 words long.
 Raffenetti 2 integral format.
 Two-electron integral symmetry is turned on.
 R6Disp:  Grimme-D3(BJ) Dispersion energy=       -0.0056911265 Hartrees.
 Nuclear repulsion after empirical dispersion term =       64.9625802013 Hartrees.
 ------------------------------------------------------------------------------
 Polarizable Continuum Model (PCM)
 =================================
 Model                : PCM.
 Atomic radii         : SMD-Coulomb.
 Polarization charges : Total charges.
 Charge compensation  : None.
 Solution method      : On-the-fly selection.
 Cavity type          : VdW (van der Waals Surface) (Alpha=1.000).
 Cavity algorithm     : GePol (No added spheres)
                        Default sphere list used, NSphG=    6.
                        Lebedev-Laikov grids with approx.  5.0 points / Ang**2.
                        Smoothing algorithm: York/Karplus (Gamma=1.0000).
                        Polarization charges: spherical gaussians, with
                                              point-specific exponents (IZeta= 3).
                        Self-potential: point-specific (ISelfS= 7).
                        Self-field    : sphere-specific E.n sum rule (ISelfD= 2).
 1st derivatives      : Analytical E(r).r(x)/FMM algorithm (CHGder, D1EAlg=3).
                        Cavity 1st derivative terms included.
 Solvent              : TetraHydroFuran, Eps=   7.425700 Eps(inf)=   1.974025
 ------------------------------------------------------------------------------
 Spheres list:
 ISph  on   Nord     Re0    Alpha      Xe            Ye            Ze
    1   P      1    2.1200  1.000      0.439142     -0.014380     -0.008242
    2   N      2    1.8900  1.000     -1.147525      0.136259     -0.020749
    3   H      3    1.2000  1.000     -1.591327     -0.763932      0.101181
    4   H      4    1.2000  1.000      0.969771     -0.567148      1.167750
    5   H      5    1.2000  1.000      0.987445      1.264567      0.044390
    6   H      6    1.2000  1.000      1.079657     -0.671607     -1.044452
 ------------------------------------------------------------------------------
 GePol: Number of generator spheres                  =       6
 GePol: Total number of spheres                      =       6
 GePol: Number of exposed spheres                    =       6 (100.00%)
 GePol: Number of points                             =     573
 GePol: Average weight of points                     =       0.13
 GePol: Minimum weight of points                     =   0.12D-05
 GePol: Maximum weight of points                     =    0.20615
 GePol: Number of points with low weight             =      23
 GePol: Fraction of low-weight points (<1% of avg)   =       4.01%
 GePol: Cavity surface area                          =     77.233 Ang**2
 GePol: Cavity volume                                =     57.961 Ang**3
 ------------------------------------------------------------------------------
 Atomic radii for non-electrostatic terms: SMD-CDS.
 ------------------------------------------------------------------------------
 PCM non-electrostatic energy =         0.0036355474 Hartrees.
 Nuclear repulsion after PCM non-electrostatic terms =       64.9662157487 Hartrees.
 Leave Link  301 at Wed Jun 24 00:57:39 2026, MaxMem=  1879048192 cpu:               0.1 elap:               0.0
 (Enter /CH/g16/l302.exe)
 NPDir=0 NMtPBC=     1 NCelOv=     1 NCel=       1 NClECP=     1 NCelD=      1
         NCelK=      1 NCelE2=     1 NClLst=     1 CellRange=     0.0.
 One-electron integrals computed using PRISM.
 One-electron integral symmetry used in STVInt
   1 Symmetry operations used in ECPInt.
 ECPInt:  NShTT=     351 NPrTT=    1323 LenC2=     352 LenP2D=    1217.
 LDataN:  DoStor=T MaxTD1= 4 Len=   56
 NBasis=    52 RedAO= T EigKep=  1.11D-02  NBF=    52
 NBsUse=    52 1.00D-06 EigRej= -1.00D+00 NBFU=    52
 Precomputing XC quadrature grid using
 IXCGrd= 4 IRadAn=           5 IRanWt=          -1 IRanGd=           0 AccXCQ= 0.00D+00.
 Generated NRdTot=       0 NPtTot=           0 NUsed=           0 NTot=          32
 NSgBfM=    54    54    54    54    54 MxSgAt=     6 MxSgA2=     6.
 Leave Link  302 at Wed Jun 24 00:57:39 2026, MaxMem=  1879048192 cpu:               0.3 elap:               0.1
 (Enter /CH/g16/l303.exe)
 DipDrv:  MaxL=1.
 Leave Link  303 at Wed Jun 24 00:57:40 2026, MaxMem=  1879048192 cpu:               0.0 elap:               0.0
 (Enter /CH/g16/l401.exe)
 Initial guess from the checkpoint file:  "phosphazene.chk"
 B after Tr=    -0.000000   -0.000000   -0.000000
         Rot=    0.997956   -0.062750   -0.011600   -0.003417 Ang=  -7.33 deg.
 Guess basis will be translated and rotated to current coordinates.
 JPrj=2 DoOrth=T DoCkMO=T.
 Generating alternative initial guess.
 ExpMin= 1.05D-01 ExpMax= 8.00D+03 ExpMxC= 1.20D+03 IAcc=3 IRadAn=         5 AccDes= 0.00D+00
 Harris functional with IExCor=  402 and IRadAn=       5 diagonalized for initial guess.
 HarFok:  IExCor=  402 AccDes= 0.00D+00 IRadAn=         5 IDoV= 1 UseB2=F ITyADJ=14
 ICtDFT=  3500011 ScaDFX=  1.000000  1.000000  1.000000  1.000000
 FoFCou: FMM=F IPFlag=           0 FMFlag=      100000 FMFlg1=           0
         NFxFlg=           0 DoJE=T BraDBF=F KetDBF=T FulRan=T
         wScrn=  0.000000 ICntrl=       500 IOpCl=  0 I1Cent=   200000004 NGrid=           0
         NMat0=    1 NMatS0=      1 NMatT0=    0 NMatD0=    1 NMtDS0=    0 NMtDT0=    0
 Petite list used in FoFCou.
 Harris En= -398.336545933367    
 Leave Link  401 at Wed Jun 24 00:57:40 2026, MaxMem=  1879048192 cpu:               0.6 elap:               0.1
 (Enter /CH/g16/l502.exe)
 Keep R1 ints in memory in canonical form, NReq=7966169.
 FoFCou: FMM=F IPFlag=           0 FMFlag=           0 FMFlg1=           0
         NFxFlg=           0 DoJE=F BraDBF=F KetDBF=F FulRan=T
         wScrn=  0.000000 ICntrl=       600 IOpCl=  0 I1Cent=           0 NGrid=           0
         NMat0=    1 NMatS0=   1378 NMatT0=    0 NMatD0=    1 NMtDS0=    0 NMtDT0=    0
 Symmetry not used in FoFCou.
 Two-electron integral symmetry not used.
 Closed shell SCF:
 Using DIIS extrapolation, IDIIS=  1040.
 NGot=  1879048192 LenX=  1878090905 LenY=  1878087548
 Requested convergence on RMS density matrix=1.00D-08 within 128 cycles.
 Requested convergence on MAX density matrix=1.00D-06.
 Requested convergence on             energy=1.00D-06.
 No special actions if energy rises.

 Cycle   1  Pass 1  IDiag  1:
 Inv3:  Mode=1 IEnd=      984987.
 Iteration    1 A*A^-1 deviation from unit magnitude is 2.89D-15 for    105.
 Iteration    1 A*A^-1 deviation from orthogonality  is 2.36D-15 for    287     75.
 Iteration    1 A^-1*A deviation from unit magnitude is 3.33D-15 for    383.
 Iteration    1 A^-1*A deviation from orthogonality  is 2.66D-15 for    516     29.
 E= -398.321893431165    
 DIIS: error= 5.03D-03 at cycle   1 NSaved=   1.
 NSaved= 1 IEnMin= 1 EnMin= -398.321893431165     IErMin= 1 ErrMin= 5.03D-03
 ErrMax= 5.03D-03  0.00D+00 EMaxC= 1.00D-01 BMatC= 2.74D-03 BMatP= 2.74D-03
 IDIUse=3 WtCom= 9.50D-01 WtEn= 5.03D-02
 Coeff-Com:  0.100D+01
 Coeff-En:   0.100D+01
 Coeff:      0.100D+01
 Gap=     0.484 Goal=   None    Shift=    0.000
 GapD=    0.484 DampG=2.000 DampE=1.000 DampFc=2.0000 IDamp=-1.
 RMSDP=2.01D-03 MaxDP=2.95D-02              OVMax= 1.91D-02

 Cycle   2  Pass 1  IDiag  1:
 E= -398.324513272325     Delta-E=       -0.002619841160 Rises=F Damp=F
 DIIS: error= 9.09D-04 at cycle   2 NSaved=   2.
 NSaved= 2 IEnMin= 2 EnMin= -398.324513272325     IErMin= 2 ErrMin= 9.09D-04
 ErrMax= 9.09D-04  0.00D+00 EMaxC= 1.00D-01 BMatC= 5.55D-05 BMatP= 2.74D-03
 IDIUse=3 WtCom= 9.91D-01 WtEn= 9.09D-03
 Coeff-Com:  0.221D-01 0.978D+00
 Coeff-En:   0.000D+00 0.100D+01
 Coeff:      0.219D-01 0.978D+00
 Gap=     0.254 Goal=   None    Shift=    0.000
 RMSDP=3.94D-04 MaxDP=3.83D-03 DE=-2.62D-03 OVMax= 7.00D-03

 Cycle   3  Pass 1  IDiag  1:
 E= -398.324477891195     Delta-E=        0.000035381130 Rises=F Damp=F
 DIIS: error= 1.51D-03 at cycle   3 NSaved=   3.
 NSaved= 3 IEnMin= 2 EnMin= -398.324513272325     IErMin= 2 ErrMin= 9.09D-04
 ErrMax= 1.51D-03  0.00D+00 EMaxC= 1.00D-01 BMatC= 1.16D-04 BMatP= 5.55D-05
 IDIUse=3 WtCom= 2.04D-01 WtEn= 7.96D-01
 Coeff-Com: -0.770D-02 0.602D+00 0.405D+00
 Coeff-En:   0.000D+00 0.602D+00 0.398D+00
 Coeff:     -0.157D-02 0.602D+00 0.400D+00
 Gap=     0.257 Goal=   None    Shift=    0.000
 RMSDP=2.25D-04 MaxDP=2.89D-03 DE= 3.54D-05 OVMax= 3.96D-03

 Cycle   4  Pass 1  IDiag  1:
 E= -398.324584882983     Delta-E=       -0.000106991789 Rises=F Damp=F
 DIIS: error= 1.30D-04 at cycle   4 NSaved=   4.
 NSaved= 4 IEnMin= 4 EnMin= -398.324584882983     IErMin= 4 ErrMin= 1.30D-04
 ErrMax= 1.30D-04  0.00D+00 EMaxC= 1.00D-01 BMatC= 1.30D-06 BMatP= 5.55D-05
 IDIUse=3 WtCom= 9.99D-01 WtEn= 1.30D-03
 Coeff-Com: -0.428D-02 0.819D-01 0.119D+00 0.804D+00
 Coeff-En:   0.000D+00 0.000D+00 0.000D+00 0.100D+01
 Coeff:     -0.427D-02 0.818D-01 0.119D+00 0.804D+00
 Gap=     0.256 Goal=   None    Shift=    0.000
 RMSDP=3.43D-05 MaxDP=3.37D-04 DE=-1.07D-04 OVMax= 5.99D-04

 Cycle   5  Pass 1  IDiag  1:
 E= -398.324586282635     Delta-E=       -0.000001399652 Rises=F Damp=F
 DIIS: error= 1.73D-05 at cycle   5 NSaved=   5.
 NSaved= 5 IEnMin= 5 EnMin= -398.324586282635     IErMin= 5 ErrMin= 1.73D-05
 ErrMax= 1.73D-05  0.00D+00 EMaxC= 1.00D-01 BMatC= 2.51D-08 BMatP= 1.30D-06
 IDIUse=1 WtCom= 1.00D+00 WtEn= 0.00D+00
 Coeff-Com: -0.369D-03-0.132D-01 0.194D-02 0.122D+00 0.890D+00
 Coeff:     -0.369D-03-0.132D-01 0.194D-02 0.122D+00 0.890D+00
 Gap=     0.256 Goal=   None    Shift=    0.000
 RMSDP=6.73D-06 MaxDP=6.85D-05 DE=-1.40D-06 OVMax= 1.33D-04

 Cycle   6  Pass 1  IDiag  1:
 E= -398.324586321895     Delta-E=       -0.000000039260 Rises=F Damp=F
 DIIS: error= 3.02D-06 at cycle   6 NSaved=   6.
 NSaved= 6 IEnMin= 6 EnMin= -398.324586321895     IErMin= 6 ErrMin= 3.02D-06
 ErrMax= 3.02D-06  0.00D+00 EMaxC= 1.00D-01 BMatC= 7.85D-10 BMatP= 2.51D-08
 IDIUse=1 WtCom= 1.00D+00 WtEn= 0.00D+00
 Coeff-Com:  0.838D-04-0.451D-02-0.274D-02-0.666D-02 0.131D+00 0.883D+00
 Coeff:      0.838D-04-0.451D-02-0.274D-02-0.666D-02 0.131D+00 0.883D+00
 Gap=     0.256 Goal=   None    Shift=    0.000
 RMSDP=1.56D-06 MaxDP=1.68D-05 DE=-3.93D-08 OVMax= 3.02D-05

 Cycle   7  Pass 1  IDiag  1:
 E= -398.324586323376     Delta-E=       -0.000000001481 Rises=F Damp=F
 DIIS: error= 9.27D-07 at cycle   7 NSaved=   7.
 NSaved= 7 IEnMin= 7 EnMin= -398.324586323376     IErMin= 7 ErrMin= 9.27D-07
 ErrMax= 9.27D-07  0.00D+00 EMaxC= 1.00D-01 BMatC= 8.52D-11 BMatP= 7.85D-10
 IDIUse=1 WtCom= 1.00D+00 WtEn= 0.00D+00
 Coeff-Com:  0.430D-04-0.101D-02-0.105D-02-0.546D-02 0.732D-02 0.255D+00
 Coeff-Com:  0.745D+00
 Coeff:      0.430D-04-0.101D-02-0.105D-02-0.546D-02 0.732D-02 0.255D+00
 Coeff:      0.745D+00
 Gap=     0.256 Goal=   None    Shift=    0.000
 RMSDP=3.75D-07 MaxDP=7.52D-06 DE=-1.48D-09 OVMax= 6.17D-06

 Cycle   8  Pass 1  IDiag  1:
 E= -398.324586323490     Delta-E=       -0.000000000114 Rises=F Damp=F
 DIIS: error= 2.04D-07 at cycle   8 NSaved=   8.
 NSaved= 8 IEnMin= 8 EnMin= -398.324586323490     IErMin= 8 ErrMin= 2.04D-07
 ErrMax= 2.04D-07  0.00D+00 EMaxC= 1.00D-01 BMatC= 5.88D-12 BMatP= 8.52D-11
 IDIUse=1 WtCom= 1.00D+00 WtEn= 0.00D+00
 Coeff-Com:  0.309D-05 0.135D-03-0.748D-04-0.951D-03-0.947D-02-0.443D-02
 Coeff-Com:  0.207D+00 0.807D+00
 Coeff:      0.309D-05 0.135D-03-0.748D-04-0.951D-03-0.947D-02-0.443D-02
 Coeff:      0.207D+00 0.807D+00
 Gap=     0.256 Goal=   None    Shift=    0.000
 RMSDP=1.03D-07 MaxDP=1.52D-06 DE=-1.14D-10 OVMax= 1.83D-06

 Cycle   9  Pass 1  IDiag  1:
 E= -398.324586323499     Delta-E=       -0.000000000010 Rises=F Damp=F
 DIIS: error= 2.74D-08 at cycle   9 NSaved=   9.
 NSaved= 9 IEnMin= 9 EnMin= -398.324586323499     IErMin= 9 ErrMin= 2.74D-08
 ErrMax= 2.74D-08  0.00D+00 EMaxC= 1.00D-01 BMatC= 6.83D-14 BMatP= 5.88D-12
 IDIUse=1 WtCom= 1.00D+00 WtEn= 0.00D+00
 Coeff-Com: -0.576D-06 0.416D-04 0.164D-04-0.554D-04-0.156D-02-0.824D-02
 Coeff-Com:  0.830D-02 0.120D+00 0.881D+00
 Coeff:     -0.576D-06 0.416D-04 0.164D-04-0.554D-04-0.156D-02-0.824D-02
 Coeff:      0.830D-02 0.120D+00 0.881D+00
 Gap=     0.256 Goal=   None    Shift=    0.000
 RMSDP=1.24D-08 MaxDP=1.20D-07 DE=-9.66D-12 OVMax= 2.41D-07

 Cycle  10  Pass 1  IDiag  1:
 E= -398.324586323499     Delta-E=        0.000000000000 Rises=F Damp=F
 DIIS: error= 4.92D-09 at cycle  10 NSaved=  10.
 NSaved=10 IEnMin= 9 EnMin= -398.324586323499     IErMin=10 ErrMin= 4.92D-09
 ErrMax= 4.92D-09  0.00D+00 EMaxC= 1.00D-01 BMatC= 1.97D-15 BMatP= 6.83D-14
 IDIUse=1 WtCom= 1.00D+00 WtEn= 0.00D+00
 Coeff-Com: -0.118D-06 0.284D-05 0.603D-05 0.125D-04 0.301D-04-0.107D-02
 Coeff-Com: -0.282D-02 0.102D-02 0.116D+00 0.886D+00
 Coeff:     -0.118D-06 0.284D-05 0.603D-05 0.125D-04 0.301D-04-0.107D-02
 Coeff:     -0.282D-02 0.102D-02 0.116D+00 0.886D+00
 Gap=     0.256 Goal=   None    Shift=    0.000
 RMSDP=1.56D-09 MaxDP=1.44D-08 DE= 1.14D-13 OVMax= 2.36D-08

 Error on total polarization charges =  0.02110
 SCF Done:  E(RB3LYP) =  -398.324586323     A.U. after   10 cycles
            NFock= 10  Conv=0.16D-08     -V/T= 2.0039
 KE= 3.967650826200D+02 PE=-1.074048936877D+03 EE= 2.139930521844D+02
 SMD-CDS (non-electrostatic) energy       (kcal/mol) =       2.28
 (included in total energy above)
 Leave Link  502 at Wed Jun 24 00:57:41 2026, MaxMem=  1879048192 cpu:               6.0 elap:               0.8
 (Enter /CH/g16/l701.exe)
 ... and contract with generalized density number  0.
 Compute integral first derivatives.
 R6Disp: Adding Grimme-D3(BJ) dispersion energy 1st derivatives to the gradient.
   1 Symmetry operations used in ECPInt.
 ECPInt:  NShTT=     351 NPrTT=    1323 LenC2=     352 LenP2D=    1217.
 LDataN:  DoStor=T MaxTD1= 5 Len=  102
 D1PCM: PCM CHGder 1st derivatives, ID1Alg=3 FixD1E=F DoIter=F DoCFld=F I1PDM=0.
 GePol: Maximum number of non-zero 1st derivatives   =     298
 Leave Link  701 at Wed Jun 24 00:57:41 2026, MaxMem=  1879048192 cpu:               1.3 elap:               0.2
 (Enter /CH/g16/l702.exe)
 L702 exits ... SP integral derivatives will be done elsewhere.
 Leave Link  702 at Wed Jun 24 00:57:41 2026, MaxMem=  1879048192 cpu:               0.0 elap:               0.0
 (Enter /CH/g16/l703.exe)
 Integral derivatives from FoFJK, PRISM(SPDF).
 Compute integral first derivatives, UseDBF=F ICtDFT=           0.
 Calling FoFJK, ICntrl=      2127 FMM=F ISym2X=0 I1Cent= 0 IOpClX= 0 NMat=1 NMatS=1 NMatT=0.
 FoFJK:  IHMeth= 1 ICntrl=    2127 DoSepK=F KAlg= 0 I1Cent=           0 FoldK=F
 IRaf=         0 NMat=       1 IRICut=       1 DoRegI=T DoRafI=F ISym2E= 0 IDoP0=0 IntGTp=1.
 FoFCou: FMM=F IPFlag=           0 FMFlag=      100000 FMFlg1=         800
         NFxFlg=           0 DoJE=F BraDBF=F KetDBF=F FulRan=T
         wScrn=  0.000000 ICntrl=      2127 IOpCl=  0 I1Cent=           0 NGrid=           0
         NMat0=    1 NMatS0=      1 NMatT0=    0 NMatD0=    1 NMtDS0=    0 NMtDT0=    0
 Symmetry not used in FoFCou.
 Leave Link  703 at Wed Jun 24 00:57:41 2026, MaxMem=  1879048192 cpu:               1.0 elap:               0.2
 (Enter /CH/g16/l716.exe)
 Dipole        = 1.53465277D+00-6.63483522D-01 5.26418108D-02
 ***** Axes restored to original set *****
 -------------------------------------------------------------------
 Center     Atomic                   Forces (Hartrees/Bohr)
 Number     Number              X              Y              Z
 -------------------------------------------------------------------
      1       15           0.036801575    0.002201375    0.025826807
      2        7          -0.005711857   -0.012664596    0.000954012
      3        1           0.005336367    0.009425881   -0.004808574
      4        1          -0.014525794    0.009098137   -0.003071405
      5        1          -0.007087490   -0.008706219   -0.002348091
      6        1          -0.014812800    0.000645423   -0.016552749
 -------------------------------------------------------------------
 Cartesian Forces:  Max     0.036801575 RMS     0.013517851
 Leave Link  716 at Wed Jun 24 00:57:41 2026, MaxMem=  1879048192 cpu:               0.0 elap:               0.0
 (Enter /CH/g16/l103.exe)

 GradGradGradGradGradGradGradGradGradGradGradGradGradGradGradGradGradGrad
 Berny optimization.
 Using GEDIIS/GDIIS optimizer.
 FormGI is forming the generalized inverse of G from B-inverse, IUseBI=4.
 Internal  Forces:  Max     0.020732261 RMS     0.010285221
 Search for a local minimum.
 Step number   2 out of a maximum of   25
 All quantities printed in internal units (Hartrees-Bohrs-Radians)
 RMS Force = .10285D-01 SwitMx=.10000D-02 MixMth= 1
 Mixed Optimization -- RFO/linear search
 Update second derivatives using D2CorX and points    1    2
 DE= -2.15D-02 DEPred=-2.25D-02 R= 9.55D-01
 TightC=F SS=  1.41D+00  RLast= 3.06D-01 DXNew= 5.0454D-01 9.1720D-01
 Trust test= 9.55D-01 RLast= 3.06D-01 DXMaxT set to 5.05D-01
 The second derivative matrix:
                          R1        R2        R3        R4        R5
           R1           0.57203
           R2           0.00983   0.25208
           R3           0.00842   0.00188   0.25293
           R4           0.01761   0.00241   0.00344   0.29205
           R5           0.00900  -0.00011   0.00084  -0.00008   0.50043
           A1           0.01369   0.00321   0.00359   0.00585   0.00153
           A2           0.00521   0.00238   0.00216   0.00428   0.00198
           A3           0.00199   0.00058   0.00060   0.00105   0.00036
           A4          -0.00443  -0.00327  -0.00269  -0.00584  -0.00317
           A5          -0.00515   0.00215   0.00095   0.00374   0.00345
           A6          -0.00399   0.00222   0.00112   0.00389   0.00334
           A7           0.00221   0.00137   0.00117   0.00246   0.00127
           D1          -0.00021  -0.00042  -0.00031  -0.00074  -0.00046
           D2          -0.00336  -0.00237  -0.00197  -0.00423  -0.00227
           D3           0.00448   0.00390   0.00313   0.00696   0.00392
                          A1        A2        A3        A4        A5
           A1           0.16599
           A2           0.00354   0.16153
           A3           0.00099   0.00053   0.16016
           A4          -0.00436  -0.00150  -0.00062   0.16110
           A5           0.00139  -0.00080   0.00007   0.00210   0.15564
           A6           0.00168  -0.00053   0.00013   0.00170  -0.00402
           A7           0.00189   0.00071   0.00027  -0.00058  -0.00076
           D1          -0.00049  -0.00011  -0.00006   0.00002   0.00040
           D2          -0.00319  -0.00112  -0.00045   0.00085   0.00147
           D3           0.00505   0.00161   0.00070  -0.00103  -0.00281
                          A6        A7        D1        D2        D3
           A6           0.15632
           A7          -0.00059   0.16029
           D1           0.00035  -0.00002   0.03692
           D2           0.00118  -0.00044   0.00002   0.03759
           D3          -0.00232   0.00058   0.00002  -0.00081   0.03782
 ITU=  1  0
 Use linear search instead of GDIIS.
     Eigenvalues ---    0.03691   0.09762   0.10984   0.15600   0.16000
     Eigenvalues ---    0.16000   0.16699   0.25057   0.25394   0.29190
     Eigenvalues ---    0.49941   0.57554
 RFO step:  Lambda=-1.64806516D-03 EMin= 3.69122964D-02
 Quartic linear search produced a step of  0.70422.
 Iteration  1 RMS(Cart)=  0.07742664 RMS(Int)=  0.00648883
 Iteration  2 RMS(Cart)=  0.00468083 RMS(Int)=  0.00435070
 Iteration  3 RMS(Cart)=  0.00001432 RMS(Int)=  0.00435068
 Iteration  4 RMS(Cart)=  0.00000016 RMS(Int)=  0.00435068
 ITry= 1 IFail=0 DXMaxC= 1.67D-01 DCOld= 1.00D+10 DXMaxT= 5.05D-01 DXLimC= 3.00D+00 Rises=F
 Variable       Old X    -DE/DX   Delta X   Delta X   Delta X     New X
                                 (Linear)    (Quad)   (Total)
    R1        3.01194  -0.00090   0.02008  -0.03054  -0.01047   3.00147
    R2        2.65241   0.01238   0.06149  -0.00426   0.05723   2.70963
    R3        2.63148   0.00863   0.04675  -0.00854   0.03821   2.66969
    R4        2.61571   0.02073   0.09546  -0.01319   0.08227   2.69798
    R5        1.91056   0.01177   0.03310  -0.00604   0.02706   1.93762
    A1        2.00440   0.01702   0.11746   0.01755   0.12838   2.13278
    A2        1.88122   0.00490   0.03072   0.01115   0.03520   1.91643
    A3        2.09400   0.00401   0.01572   0.00944   0.02387   2.11787
    A4        1.75298  -0.00081  -0.01116   0.04159   0.02034   1.77332
    A5        1.83930  -0.01632  -0.08458  -0.04890  -0.13519   1.70411
    A6        1.85686  -0.01126  -0.07221  -0.02681  -0.09917   1.75769
    A7        1.93038   0.00028   0.00861  -0.00976  -0.00115   1.92923
    D1       -1.03509   0.00377   0.01148   0.01154   0.02919  -1.00590
    D2       -2.97223  -0.00714  -0.04214  -0.05521  -0.10444  -3.07667
    D3        1.18491   0.00102   0.01775  -0.03525  -0.01658   1.16833
         Item               Value     Threshold  Converged?
 Maximum Force            0.020732     0.000450     NO 
 RMS     Force            0.010285     0.000300     NO 
 Maximum Displacement     0.166587     0.001800     NO 
 RMS     Displacement     0.077404     0.001200     NO 
 Predicted change in Energy=-3.958032D-03
 Lowest energy point so far.  Saving SCF results.
 GradGradGradGradGradGradGradGradGradGradGradGradGradGradGradGradGradGrad

 Leave Link  103 at Wed Jun 24 00:57:41 2026, MaxMem=  1879048192 cpu:               0.0 elap:               0.0
 (Enter /CH/g16/l202.exe)
                          Input orientation:                          
 ---------------------------------------------------------------------
 Center     Atomic      Atomic             Coordinates (Angstroms)
 Number     Number       Type             X           Y           Z
 ---------------------------------------------------------------------
      1         15           0        0.082114    0.037905    0.094394
      2          7           0        1.654645   -0.025081    0.308669
      3          1           0        2.099886    0.829648   -0.041369
      4          1           0       -0.722336    1.090069    0.643770
      5          1           0       -0.523967   -1.107022    0.657992
      6          1           0       -0.490342    0.024481   -1.213456
 ---------------------------------------------------------------------
                    Distance matrix (angstroms):
                    1          2          3          4          5
     1  P    0.000000
     2  N    1.588312   0.000000
     3  H    2.171795   1.025343   0.000000
     4  H    1.433877   2.646864   2.915848   0.000000
     5  H    1.412740   2.457433   3.335327   2.206074   0.000000
     6  H    1.427711   2.630645   2.954888   2.153737   2.187178
                    6
     6  H    0.000000
 Stoichiometry    H4NP
 Framework group  C1[X(H4NP)]
 Deg. of freedom    12
 Full point group                 C1      NOp   1
 RotChk:  IX=2 Diff= 1.81D-01
 Largest Abelian subgroup         C1      NOp   1
 Largest concise Abelian subgroup C1      NOp   1
                         Standard orientation:                         
 ---------------------------------------------------------------------
 Center     Atomic      Atomic             Coordinates (Angstroms)
 Number     Number       Type             X           Y           Z
 ---------------------------------------------------------------------
      1         15           0        0.427100   -0.008739    0.000671
      2          7           0       -1.154926    0.132428    0.001536
      3          1           0       -1.598539   -0.791848   -0.014227
      4          1           0        1.129457   -0.740543    1.014160
      5          1           0        1.021633    1.268249    0.108683
      6          1           0        1.125437   -0.531765   -1.129430
 ---------------------------------------------------------------------
 Rotational constants (GHZ):          89.9922861          15.3776832          14.9468972
 Leave Link  202 at Wed Jun 24 00:57:41 2026, MaxMem=  1879048192 cpu:               0.0 elap:               0.0
 (Enter /CH/g16/l301.exe)
 Standard basis: def2SVP (5D, 7F)
 Ernie: Thresh=  0.10000D-02 Tol=  0.10000D-05 Strict=F.
 There are    54 symmetry adapted cartesian basis functions of A   symmetry.
 There are    52 symmetry adapted basis functions of A   symmetry.
    52 basis functions,    90 primitive gaussians,    54 cartesian basis functions
    13 alpha electrons       13 beta electrons
       nuclear repulsion energy        64.5262126128 Hartrees.
 IExCor=  402 DFT=T Ex+Corr=B3LYP ExCW=0 ScaHFX=  0.200000
 ScaDFX=  0.800000  0.720000  1.000000  0.810000 ScalE2=  1.000000  1.000000
 IRadAn=      5 IRanWt=     -1 IRanGd=            0 ICorTp=0 IEmpDi=141
 NAtoms=    6 NActive=    6 NUniq=    6 SFac= 1.00D+00 NAtFMM=   60 NAOKFM=F Big=F
 Integral buffers will be    131072 words long.
 Raffenetti 2 integral format.
 Two-electron integral symmetry is turned on.
 R6Disp:  Grimme-D3(BJ) Dispersion energy=       -0.0056498992 Hartrees.
 Nuclear repulsion after empirical dispersion term =       64.5205627136 Hartrees.
 ------------------------------------------------------------------------------
 Polarizable Continuum Model (PCM)
 =================================
 Model                : PCM.
 Atomic radii         : SMD-Coulomb.
 Polarization charges : Total charges.
 Charge compensation  : None.
 Solution method      : On-the-fly selection.
 Cavity type          : VdW (van der Waals Surface) (Alpha=1.000).
 Cavity algorithm     : GePol (No added spheres)
                        Default sphere list used, NSphG=    6.
                        Lebedev-Laikov grids with approx.  5.0 points / Ang**2.
                        Smoothing algorithm: York/Karplus (Gamma=1.0000).
                        Polarization charges: spherical gaussians, with
                                              point-specific exponents (IZeta= 3).
                        Self-potential: point-specific (ISelfS= 7).
                        Self-field    : sphere-specific E.n sum rule (ISelfD= 2).
 1st derivatives      : Analytical E(r).r(x)/FMM algorithm (CHGder, D1EAlg=3).
                        Cavity 1st derivative terms included.
 Solvent              : TetraHydroFuran, Eps=   7.425700 Eps(inf)=   1.974025
 ------------------------------------------------------------------------------
 Spheres list:
 ISph  on   Nord     Re0    Alpha      Xe            Ye            Ze
    1   P      1    2.1200  1.000      0.427100     -0.008739      0.000671
    2   N      2    1.8900  1.000     -1.154926      0.132428      0.001536
    3   H      3    1.2000  1.000     -1.598539     -0.791848     -0.014227
    4   H      4    1.2000  1.000      1.129457     -0.740543      1.014160
    5   H      5    1.2000  1.000      1.021633      1.268249      0.108683
    6   H      6    1.2000  1.000      1.125437     -0.531765     -1.129430
 ------------------------------------------------------------------------------
 GePol: Number of generator spheres                  =       6
 GePol: Total number of spheres                      =       6
 GePol: Number of exposed spheres                    =       6 (100.00%)
 GePol: Number of points                             =     573
 GePol: Average weight of points                     =       0.14
 GePol: Minimum weight of points                     =   0.12D-05
 GePol: Maximum weight of points                     =    0.20615
 GePol: Number of points with low weight             =      16
 GePol: Fraction of low-weight points (<1% of avg)   =       2.79%
 GePol: Cavity surface area                          =     77.703 Ang**2
 GePol: Cavity volume                                =     58.245 Ang**3
 ------------------------------------------------------------------------------
 Atomic radii for non-electrostatic terms: SMD-CDS.
 ------------------------------------------------------------------------------
 PCM non-electrostatic energy =         0.0036567784 Hartrees.
 Nuclear repulsion after PCM non-electrostatic terms =       64.5242194920 Hartrees.
 Leave Link  301 at Wed Jun 24 00:57:41 2026, MaxMem=  1879048192 cpu:               0.0 elap:               0.0
 (Enter /CH/g16/l302.exe)
 NPDir=0 NMtPBC=     1 NCelOv=     1 NCel=       1 NClECP=     1 NCelD=      1
         NCelK=      1 NCelE2=     1 NClLst=     1 CellRange=     0.0.
 One-electron integrals computed using PRISM.
 One-electron integral symmetry used in STVInt
   1 Symmetry operations used in ECPInt.
 ECPInt:  NShTT=     351 NPrTT=    1323 LenC2=     352 LenP2D=    1216.
 LDataN:  DoStor=T MaxTD1= 4 Len=   56
 NBasis=    52 RedAO= T EigKep=  1.27D-02  NBF=    52
 NBsUse=    52 1.00D-06 EigRej= -1.00D+00 NBFU=    52
 Precomputing XC quadrature grid using
 IXCGrd= 4 IRadAn=           5 IRanWt=          -1 IRanGd=           0 AccXCQ= 0.00D+00.
 Generated NRdTot=       0 NPtTot=           0 NUsed=           0 NTot=          32
 NSgBfM=    54    54    54    54    54 MxSgAt=     6 MxSgA2=     6.
 Leave Link  302 at Wed Jun 24 00:57:41 2026, MaxMem=  1879048192 cpu:               0.3 elap:               0.1
 (Enter /CH/g16/l303.exe)
 DipDrv:  MaxL=1.
 Leave Link  303 at Wed Jun 24 00:57:41 2026, MaxMem=  1879048192 cpu:               0.1 elap:               0.0
 (Enter /CH/g16/l401.exe)
 Initial guess from the checkpoint file:  "phosphazene.chk"
 B after Tr=     0.000000    0.000000   -0.000000
         Rot=    0.998043   -0.062073   -0.006308   -0.004199 Ang=  -7.17 deg.
 Guess basis will be translated and rotated to current coordinates.
 JPrj=2 DoOrth=T DoCkMO=T.
 Generating alternative initial guess.
 ExpMin= 1.05D-01 ExpMax= 8.00D+03 ExpMxC= 1.20D+03 IAcc=3 IRadAn=         5 AccDes= 0.00D+00
 Harris functional with IExCor=  402 and IRadAn=       5 diagonalized for initial guess.
 HarFok:  IExCor=  402 AccDes= 0.00D+00 IRadAn=         5 IDoV= 1 UseB2=F ITyADJ=14
 ICtDFT=  3500011 ScaDFX=  1.000000  1.000000  1.000000  1.000000
 FoFCou: FMM=F IPFlag=           0 FMFlag=      100000 FMFlg1=           0
         NFxFlg=           0 DoJE=T BraDBF=F KetDBF=T FulRan=T
         wScrn=  0.000000 ICntrl=       500 IOpCl=  0 I1Cent=   200000004 NGrid=           0
         NMat0=    1 NMatS0=      1 NMatT0=    0 NMatD0=    1 NMtDS0=    0 NMtDT0=    0
 Petite list used in FoFCou.
 Harris En= -398.334382606201    
 Leave Link  401 at Wed Jun 24 00:57:41 2026, MaxMem=  1879048192 cpu:               0.6 elap:               0.1
 (Enter /CH/g16/l502.exe)
 Keep R1 ints in memory in canonical form, NReq=7966169.
 FoFCou: FMM=F IPFlag=           0 FMFlag=           0 FMFlg1=           0
         NFxFlg=           0 DoJE=F BraDBF=F KetDBF=F FulRan=T
         wScrn=  0.000000 ICntrl=       600 IOpCl=  0 I1Cent=           0 NGrid=           0
         NMat0=    1 NMatS0=   1378 NMatT0=    0 NMatD0=    1 NMtDS0=    0 NMtDT0=    0
 Symmetry not used in FoFCou.
 Two-electron integral symmetry not used.
 Closed shell SCF:
 Using DIIS extrapolation, IDIIS=  1040.
 NGot=  1879048192 LenX=  1878090905 LenY=  1878087548
 Requested convergence on RMS density matrix=1.00D-08 within 128 cycles.
 Requested convergence on MAX density matrix=1.00D-06.
 Requested convergence on             energy=1.00D-06.
 No special actions if energy rises.

 Cycle   1  Pass 1  IDiag  1:
 Inv3:  Mode=1 IEnd=      984987.
 Iteration    1 A*A^-1 deviation from unit magnitude is 2.89D-15 for    368.
 Iteration    1 A*A^-1 deviation from orthogonality  is 2.04D-15 for    223     68.
 Iteration    1 A^-1*A deviation from unit magnitude is 2.89D-15 for    376.
 Iteration    1 A^-1*A deviation from orthogonality  is 1.44D-15 for    503    117.
 E= -398.327526764415    
 DIIS: error= 3.72D-03 at cycle   1 NSaved=   1.
 NSaved= 1 IEnMin= 1 EnMin= -398.327526764415     IErMin= 1 ErrMin= 3.72D-03
 ErrMax= 3.72D-03  0.00D+00 EMaxC= 1.00D-01 BMatC= 1.50D-03 BMatP= 1.50D-03
 IDIUse=3 WtCom= 9.63D-01 WtEn= 3.72D-02
 Coeff-Com:  0.100D+01
 Coeff-En:   0.100D+01
 Coeff:      0.100D+01
 Gap=     0.494 Goal=   None    Shift=    0.000
 GapD=    0.494 DampG=2.000 DampE=1.000 DampFc=2.0000 IDamp=-1.
 RMSDP=1.18D-03 MaxDP=1.07D-02              OVMax= 1.67D-02

 Cycle   2  Pass 1  IDiag  1:
 E= -398.329111630198     Delta-E=       -0.001584865784 Rises=F Damp=F
 DIIS: error= 1.76D-03 at cycle   2 NSaved=   2.
 NSaved= 2 IEnMin= 2 EnMin= -398.329111630198     IErMin= 2 ErrMin= 1.76D-03
 ErrMax= 1.76D-03  0.00D+00 EMaxC= 1.00D-01 BMatC= 1.16D-04 BMatP= 1.50D-03
 IDIUse=3 WtCom= 9.82D-01 WtEn= 1.76D-02
 Coeff-Com:  0.932D-01 0.907D+00
 Coeff-En:   0.000D+00 0.100D+01
 Coeff:      0.916D-01 0.908D+00
 Gap=     0.264 Goal=   None    Shift=    0.000
 RMSDP=5.09D-04 MaxDP=6.53D-03 DE=-1.58D-03 OVMax= 1.00D-02

 Cycle   3  Pass 1  IDiag  1:
 E= -398.328986063844     Delta-E=        0.000125566354 Rises=F Damp=F
 DIIS: error= 2.45D-03 at cycle   3 NSaved=   3.
 NSaved= 3 IEnMin= 2 EnMin= -398.329111630198     IErMin= 2 ErrMin= 1.76D-03
 ErrMax= 2.45D-03  0.00D+00 EMaxC= 1.00D-01 BMatC= 2.65D-04 BMatP= 1.16D-04
 IDIUse=3 WtCom= 1.68D-01 WtEn= 8.32D-01
 Coeff-Com: -0.175D-01 0.610D+00 0.407D+00
 Coeff-En:   0.000D+00 0.648D+00 0.352D+00
 Coeff:     -0.295D-02 0.642D+00 0.361D+00
 Gap=     0.267 Goal=   None    Shift=    0.000
 RMSDP=2.80D-04 MaxDP=3.73D-03 DE= 1.26D-04 OVMax= 5.12D-03

 Cycle   4  Pass 1  IDiag  1:
 E= -398.329229300510     Delta-E=       -0.000243236666 Rises=F Damp=F
 DIIS: error= 2.23D-04 at cycle   4 NSaved=   4.
 NSaved= 4 IEnMin= 4 EnMin= -398.329229300510     IErMin= 4 ErrMin= 2.23D-04
 ErrMax= 2.23D-04  0.00D+00 EMaxC= 1.00D-01 BMatC= 2.34D-06 BMatP= 1.16D-04
 IDIUse=3 WtCom= 9.98D-01 WtEn= 2.23D-03
 Coeff-Com: -0.604D-02 0.101D+00-0.139D-01 0.919D+00
 Coeff-En:   0.000D+00 0.000D+00 0.000D+00 0.100D+01
 Coeff:     -0.602D-02 0.101D+00-0.139D-01 0.919D+00
 Gap=     0.267 Goal=   None    Shift=    0.000
 RMSDP=3.23D-05 MaxDP=3.34D-04 DE=-2.43D-04 OVMax= 5.58D-04

 Cycle   5  Pass 1  IDiag  1:
 E= -398.329231600522     Delta-E=       -0.000002300012 Rises=F Damp=F
 DIIS: error= 2.26D-05 at cycle   5 NSaved=   5.
 NSaved= 5 IEnMin= 5 EnMin= -398.329231600522     IErMin= 5 ErrMin= 2.26D-05
 ErrMax= 2.26D-05  0.00D+00 EMaxC= 1.00D-01 BMatC= 2.83D-08 BMatP= 2.34D-06
 IDIUse=1 WtCom= 1.00D+00 WtEn= 0.00D+00
 Coeff-Com: -0.276D-03-0.124D-01-0.252D-01 0.196D+00 0.841D+00
 Coeff:     -0.276D-03-0.124D-01-0.252D-01 0.196D+00 0.841D+00
 Gap=     0.267 Goal=   None    Shift=    0.000
 RMSDP=6.48D-06 MaxDP=1.03D-04 DE=-2.30D-06 OVMax= 1.10D-04

 Cycle   6  Pass 1  IDiag  1:
 E= -398.329231635620     Delta-E=       -0.000000035098 Rises=F Damp=F
 DIIS: error= 6.14D-06 at cycle   6 NSaved=   6.
 NSaved= 6 IEnMin= 6 EnMin= -398.329231635620     IErMin= 6 ErrMin= 6.14D-06
 ErrMax= 6.14D-06  0.00D+00 EMaxC= 1.00D-01 BMatC= 2.67D-09 BMatP= 2.83D-08
 IDIUse=1 WtCom= 1.00D+00 WtEn= 0.00D+00
 Coeff-Com:  0.951D-04-0.819D-02-0.802D-02 0.321D-01 0.307D+00 0.678D+00
 Coeff:      0.951D-04-0.819D-02-0.802D-02 0.321D-01 0.307D+00 0.678D+00
 Gap=     0.267 Goal=   None    Shift=    0.000
 RMSDP=1.74D-06 MaxDP=4.11D-05 DE=-3.51D-08 OVMax= 2.28D-05

 Cycle   7  Pass 1  IDiag  1:
 E= -398.329231639250     Delta-E=       -0.000000003630 Rises=F Damp=F
 DIIS: error= 7.40D-07 at cycle   7 NSaved=   7.
 NSaved= 7 IEnMin= 7 EnMin= -398.329231639250     IErMin= 7 ErrMin= 7.40D-07
 ErrMax= 7.40D-07  0.00D+00 EMaxC= 1.00D-01 BMatC= 5.10D-11 BMatP= 2.67D-09
 IDIUse=1 WtCom= 1.00D+00 WtEn= 0.00D+00
 Coeff-Com:  0.470D-04-0.559D-03 0.262D-03-0.796D-02-0.867D-02 0.956D-01
 Coeff-Com:  0.921D+00
 Coeff:      0.470D-04-0.559D-03 0.262D-03-0.796D-02-0.867D-02 0.956D-01
 Coeff:      0.921D+00
 Gap=     0.267 Goal=   None    Shift=    0.000
 RMSDP=4.33D-07 MaxDP=4.86D-06 DE=-3.63D-09 OVMax= 9.14D-06

 Cycle   8  Pass 1  IDiag  1:
 E= -398.329231639353     Delta-E=       -0.000000000103 Rises=F Damp=F
 DIIS: error= 1.01D-07 at cycle   8 NSaved=   8.
 NSaved= 8 IEnMin= 8 EnMin= -398.329231639353     IErMin= 8 ErrMin= 1.01D-07
 ErrMax= 1.01D-07  0.00D+00 EMaxC= 1.00D-01 BMatC= 1.04D-12 BMatP= 5.10D-11
 IDIUse=1 WtCom= 1.00D+00 WtEn= 0.00D+00
 Coeff-Com:  0.880D-06 0.167D-03 0.204D-03-0.157D-02-0.903D-02-0.816D-02
 Coeff-Com:  0.718D-01 0.947D+00
 Coeff:      0.880D-06 0.167D-03 0.204D-03-0.157D-02-0.903D-02-0.816D-02
 Coeff:      0.718D-01 0.947D+00
 Gap=     0.267 Goal=   None    Shift=    0.000
 RMSDP=7.22D-08 MaxDP=8.44D-07 DE=-1.03D-10 OVMax= 1.53D-06

 Cycle   9  Pass 1  IDiag  1:
 E= -398.329231639356     Delta-E=       -0.000000000003 Rises=F Damp=F
 DIIS: error= 2.57D-08 at cycle   9 NSaved=   9.
 NSaved= 9 IEnMin= 9 EnMin= -398.329231639356     IErMin= 9 ErrMin= 2.57D-08
 ErrMax= 2.57D-08  0.00D+00 EMaxC= 1.00D-01 BMatC= 3.81D-14 BMatP= 1.04D-12
 IDIUse=1 WtCom= 1.00D+00 WtEn= 0.00D+00
 Coeff-Com: -0.851D-06 0.422D-04 0.372D-04-0.137D-03-0.143D-02-0.341D-02
 Coeff-Com: -0.904D-02 0.178D+00 0.836D+00
 Coeff:     -0.851D-06 0.422D-04 0.372D-04-0.137D-03-0.143D-02-0.341D-02
 Coeff:     -0.904D-02 0.178D+00 0.836D+00
 Gap=     0.267 Goal=   None    Shift=    0.000
 RMSDP=7.72D-09 MaxDP=8.11D-08 DE=-2.73D-12 OVMax= 1.32D-07

 Error on total polarization charges =  0.02231
 SCF Done:  E(RB3LYP) =  -398.329231639     A.U. after    9 cycles
            NFock=  9  Conv=0.77D-08     -V/T= 2.0042
 KE= 3.966540123744D+02 PE=-1.073011624032D+03 EE= 2.135041605259D+02
 SMD-CDS (non-electrostatic) energy       (kcal/mol) =       2.29
 (included in total energy above)
 Leave Link  502 at Wed Jun 24 00:57:42 2026, MaxMem=  1879048192 cpu:               5.4 elap:               0.8
 (Enter /CH/g16/l701.exe)
 ... and contract with generalized density number  0.
 Compute integral first derivatives.
 R6Disp: Adding Grimme-D3(BJ) dispersion energy 1st derivatives to the gradient.
   1 Symmetry operations used in ECPInt.
 ECPInt:  NShTT=     351 NPrTT=    1323 LenC2=     352 LenP2D=    1216.
 LDataN:  DoStor=T MaxTD1= 5 Len=  102
 D1PCM: PCM CHGder 1st derivatives, ID1Alg=3 FixD1E=F DoIter=F DoCFld=F I1PDM=0.
 GePol: Maximum number of non-zero 1st derivatives   =     287
 Leave Link  701 at Wed Jun 24 00:57:42 2026, MaxMem=  1879048192 cpu:               1.3 elap:               0.2
 (Enter /CH/g16/l702.exe)
 L702 exits ... SP integral derivatives will be done elsewhere.
 Leave Link  702 at Wed Jun 24 00:57:42 2026, MaxMem=  1879048192 cpu:               0.0 elap:               0.0
 (Enter /CH/g16/l703.exe)
 Integral derivatives from FoFJK, PRISM(SPDF).
 Compute integral first derivatives, UseDBF=F ICtDFT=           0.
 Calling FoFJK, ICntrl=      2127 FMM=F ISym2X=0 I1Cent= 0 IOpClX= 0 NMat=1 NMatS=1 NMatT=0.
 FoFJK:  IHMeth= 1 ICntrl=    2127 DoSepK=F KAlg= 0 I1Cent=           0 FoldK=F
 IRaf=         0 NMat=       1 IRICut=       1 DoRegI=T DoRafI=F ISym2E= 0 IDoP0=0 IntGTp=1.
 FoFCou: FMM=F IPFlag=           0 FMFlag=      100000 FMFlg1=         800
         NFxFlg=           0 DoJE=F BraDBF=F KetDBF=F FulRan=T
         wScrn=  0.000000 ICntrl=      2127 IOpCl=  0 I1Cent=           0 NGrid=           0
         NMat0=    1 NMatS0=      1 NMatT0=    0 NMatD0=    1 NMtDS0=    0 NMtDT0=    0
 Symmetry not used in FoFCou.
 Leave Link  703 at Wed Jun 24 00:57:42 2026, MaxMem=  1879048192 cpu:               1.1 elap:               0.2
 (Enter /CH/g16/l716.exe)
 Dipole        = 1.35499002D+00-6.27785499D-01 4.52852743D-03
 ***** Axes restored to original set *****
 -------------------------------------------------------------------
 Center     Atomic                   Forces (Hartrees/Bohr)
 Number     Number              X              Y              Z
[...]
 Coeff-Com:  0.101D+01
 Coeff:      0.295D-04-0.174D-03-0.631D-03-0.383D-02-0.140D-01 0.118D-01
 Coeff:      0.101D+01
 Gap=     0.268 Goal=   None    Shift=    0.000
 RMSDP=1.94D-08 MaxDP=2.04D-07 DE=-1.99D-11 OVMax= 4.27D-07

 Cycle   8  Pass 1  IDiag  1:
 E= -398.329330241615     Delta-E=       -0.000000000002 Rises=F Damp=F
 DIIS: error= 7.83D-09 at cycle   8 NSaved=   8.
 NSaved= 8 IEnMin= 8 EnMin= -398.329330241615     IErMin= 8 ErrMin= 7.83D-09
 ErrMax= 7.83D-09  0.00D+00 EMaxC= 1.00D-01 BMatC= 3.12D-15 BMatP= 5.33D-14
 IDIUse=1 WtCom= 1.00D+00 WtEn= 0.00D+00
 Coeff-Com: -0.175D-05 0.204D-03-0.285D-04-0.119D-02-0.927D-02-0.135D-01
 Coeff-Com:  0.206D+00 0.818D+00
 Coeff:     -0.175D-05 0.204D-03-0.285D-04-0.119D-02-0.927D-02-0.135D-01
 Coeff:      0.206D+00 0.818D+00
 Gap=     0.268 Goal=   None    Shift=    0.000
 RMSDP=2.21D-09 MaxDP=2.40D-08 DE=-1.65D-12 OVMax= 3.83D-08

 Error on total polarization charges =  0.02232
 SCF Done:  E(RB3LYP) =  -398.329330242     A.U. after    8 cycles
            NFock=  8  Conv=0.22D-08     -V/T= 2.0042
 KE= 3.966525872528D+02 PE=-1.073125969836D+03 EE= 2.135633056254D+02
 SMD-CDS (non-electrostatic) energy       (kcal/mol) =       2.29
 (included in total energy above)
 Leave Link  502 at Wed Jun 24 00:57:49 2026, MaxMem=  1879048192 cpu:               5.0 elap:               0.7
 (Enter /CH/g16/l701.exe)
 ... and contract with generalized density number  0.
 Compute integral first derivatives.
 R6Disp: Adding Grimme-D3(BJ) dispersion energy 1st derivatives to the gradient.
   1 Symmetry operations used in ECPInt.
 ECPInt:  NShTT=     351 NPrTT=    1323 LenC2=     352 LenP2D=    1216.
 LDataN:  DoStor=T MaxTD1= 5 Len=  102
 D1PCM: PCM CHGder 1st derivatives, ID1Alg=3 FixD1E=F DoIter=F DoCFld=F I1PDM=0.
 GePol: Maximum number of non-zero 1st derivatives   =     295
 Leave Link  701 at Wed Jun 24 00:57:49 2026, MaxMem=  1879048192 cpu:               1.3 elap:               0.2
 (Enter /CH/g16/l702.exe)
 L702 exits ... SP integral derivatives will be done elsewhere.
 Leave Link  702 at Wed Jun 24 00:57:49 2026, MaxMem=  1879048192 cpu:               0.0 elap:               0.0
 (Enter /CH/g16/l703.exe)
 Integral derivatives from FoFJK, PRISM(SPDF).
 Compute integral first derivatives, UseDBF=F ICtDFT=           0.
 Calling FoFJK, ICntrl=      2127 FMM=F ISym2X=0 I1Cent= 0 IOpClX= 0 NMat=1 NMatS=1 NMatT=0.
 FoFJK:  IHMeth= 1 ICntrl=    2127 DoSepK=F KAlg= 0 I1Cent=           0 FoldK=F
 IRaf=         0 NMat=       1 IRICut=       1 DoRegI=T DoRafI=F ISym2E= 0 IDoP0=0 IntGTp=1.
 FoFCou: FMM=F IPFlag=           0 FMFlag=      100000 FMFlg1=         800
         NFxFlg=           0 DoJE=F BraDBF=F KetDBF=F FulRan=T
         wScrn=  0.000000 ICntrl=      2127 IOpCl=  0 I1Cent=           0 NGrid=           0
         NMat0=    1 NMatS0=      1 NMatT0=    0 NMatD0=    1 NMtDS0=    0 NMtDT0=    0
 Symmetry not used in FoFCou.
 Leave Link  703 at Wed Jun 24 00:57:49 2026, MaxMem=  1879048192 cpu:               1.0 elap:               0.2
 (Enter /CH/g16/l716.exe)
 Dipole        = 1.33810002D+00-6.21522268D-01 2.92283991D-04
 ***** Axes restored to original set *****
 -------------------------------------------------------------------
 Center     Atomic                   Forces (Hartrees/Bohr)
 Number     Number              X              Y              Z
 -------------------------------------------------------------------
      1       15          -0.000184585    0.000030968   -0.000083310
      2        7           0.000205773   -0.000151757    0.000137297
      3        1          -0.000016170    0.000109470   -0.000077555
      4        1          -0.000010546    0.000010138    0.000024522
      5        1           0.000004930    0.000001436    0.000008602
      6        1           0.000000598   -0.000000255   -0.000009555
 -------------------------------------------------------------------
 Cartesian Forces:  Max     0.000205773 RMS     0.000089896
 Leave Link  716 at Wed Jun 24 00:57:49 2026, MaxMem=  1879048192 cpu:               0.0 elap:               0.0
 (Enter /CH/g16/l103.exe)

 GradGradGradGradGradGradGradGradGradGradGradGradGradGradGradGradGradGrad
 Berny optimization.
 Using GEDIIS/GDIIS optimizer.
 FormGI is forming the generalized inverse of G from B-inverse, IUseBI=4.
 Internal  Forces:  Max     0.000198726 RMS     0.000070051
 Search for a local minimum.
 Step number   8 out of a maximum of   25
 All quantities printed in internal units (Hartrees-Bohrs-Radians)
 RMS Force = .70051D-04 SwitMx=.10000D-02 MixMth= 2
 Mixed Optimization -- En-DIIS/RFO-DIIS
 Swapping is turned off.
 Update second derivatives using D2CorX and points    1    2    3    4    5
                                                      6    7    8
 DE= -2.34D-06 DEPred=-1.36D-06 R= 1.73D+00
 TightC=F SS=  1.41D+00  RLast= 1.62D-02 DXNew= 1.3462D+00 4.8667D-02
 Trust test= 1.73D+00 RLast= 1.62D-02 DXMaxT set to 8.00D-01
 The second derivative matrix:
                          R1        R2        R3        R4        R5
           R1           0.53122
           R2           0.01711   0.25292
           R3           0.00324   0.00015   0.25154
           R4           0.07568   0.00420   0.00213   0.26258
           R5           0.00356   0.00615  -0.00223   0.02701   0.50967
           A1           0.00207  -0.00463   0.00018  -0.00246  -0.01060
           A2           0.00658   0.00114   0.00090   0.00308   0.00143
           A3           0.01218   0.00164   0.00121  -0.00461   0.00614
           A4          -0.00031  -0.00436  -0.00435  -0.00610  -0.00353
           A5          -0.00106   0.00758   0.00305   0.01273   0.00915
           A6          -0.00495   0.00430   0.00345   0.00887   0.00414
           A7           0.03296  -0.00180   0.00407  -0.03545   0.00727
           D1          -0.01109   0.00036   0.00100  -0.00974  -0.00421
           D2           0.00784   0.00308  -0.00420   0.00654   0.00629
           D3           0.00327   0.00349   0.00244   0.00040   0.00102
                          A1        A2        A3        A4        A5
           A1           0.15767
           A2          -0.00114   0.16008
           A3           0.00093   0.00040   0.15926
           A4          -0.01065  -0.00368  -0.00077   0.15567
           A5           0.00861   0.00381   0.00018   0.00918   0.14973
           A6           0.00968   0.00266  -0.00039   0.00876  -0.01045
           A7           0.00894   0.00206  -0.00638  -0.00006  -0.00277
           D1           0.00806  -0.00011  -0.00085  -0.00153  -0.00918
           D2          -0.01288  -0.00104   0.00113  -0.00429   0.01114
           D3           0.00579   0.00031  -0.00086  -0.00435  -0.00233
                          A6        A7        D1        D2        D3
           A6           0.14841
           A7          -0.00010   0.13954
           D1          -0.00108  -0.00139   0.03121
           D2           0.01032  -0.00031  -0.01720   0.03692
           D3           0.00203   0.00040  -0.01008  -0.01195   0.02739
 ITU=  1  1  1  1  1  1  1  0
     Eigenvalues ---    0.00502   0.09426   0.10853   0.11869   0.14753
     Eigenvalues ---    0.16096   0.16727   0.25169   0.25226   0.25915
     Eigenvalues ---    0.51027   0.55699
 En-DIIS/RFO-DIIS/Sim-DIIS IScMMF=       -3 using points:     8    7    6    5    4
 RFO step:  Lambda=-3.58634943D-07.
 NNeg= 0 NGDIIS= 5 SimSw=  2.50D-01 Rises=F DC= -2.34D-06 SmlDif=  1.00D-05
 NRisDI= 0 DoIntr=F SqrtH=F CThrHd= 10.0 CDAdj=  3.0
 RMS Error=  0.9130170621D-03 NUsed= 5 OKEnD=F EnDIS=F
 InvSVX:  RCond= 5.86D-09 Info=           0 Equed=N FErr=  9.38D-11 BErr=  6.87D-17
 DIIS inversion failure, remove point   5.
 InvSVX:  RCond= 1.00D-08 Info=           0 Equed=N FErr=  6.61D-11 BErr=  2.70D-17
 DIIS inversion failure, remove point   4.
 InvSVX:  RCond= 1.21D-06 Info=           0 Equed=N FErr=  3.64D-14 BErr=  3.25D-17
 RFO-DIIS uses    3 points instead of    5
 DidBck=F Rises=F RFO-DIIS coefs:    1.35041   -0.40527    0.05485    0.00000    0.00000
 Iteration  1 RMS(Cart)=  0.00077222 RMS(Int)=  0.00000104
 Iteration  2 RMS(Cart)=  0.00000082 RMS(Int)=  0.00000001
 ITry= 1 IFail=0 DXMaxC= 1.77D-03 DCOld= 1.00D+10 DXMaxT= 8.00D-01 DXLimC= 3.00D+00 Rises=F
 Variable       Old X    -DE/DX   Delta X   Delta X   Delta X     New X
                                 (Linear)    (Quad)   (Total)
    R1        2.99394   0.00020   0.00045   0.00009   0.00053   2.99447
    R2        2.71193   0.00002   0.00005   0.00005   0.00010   2.71203
    R3        2.66612  -0.00000   0.00007  -0.00007   0.00000   2.66613
    R4        2.71207   0.00001  -0.00083   0.00051  -0.00033   2.71175
    R5        1.93567   0.00011   0.00017   0.00010   0.00027   1.93594
    A1        2.12200  -0.00001   0.00009  -0.00010  -0.00001   2.12199
    A2        1.91466  -0.00001   0.00006  -0.00014  -0.00008   1.91458
    A3        2.12195   0.00000  -0.00019   0.00011  -0.00008   2.12187
    A4        1.76779  -0.00001  -0.00026   0.00006  -0.00020   1.76759
    A5        1.71038   0.00002   0.00005   0.00009   0.00014   1.71052
    A6        1.76737   0.00001   0.00026  -0.00001   0.00025   1.76762
    A7        1.94567  -0.00014  -0.00094  -0.00042  -0.00136   1.94430
    D1       -1.08665  -0.00002  -0.00183  -0.00011  -0.00194  -1.08859
    D2       -3.14014   0.00000  -0.00159   0.00000  -0.00159   3.14146
    D3        1.09017  -0.00001  -0.00187   0.00006  -0.00181   1.08836
         Item               Value     Threshold  Converged?
 Maximum Force            0.000199     0.000450     YES
 RMS     Force            0.000070     0.000300     YES
 Maximum Displacement     0.001771     0.001800     YES
 RMS     Displacement     0.000772     0.001200     YES
 Predicted change in Energy=-1.777643D-07
 Optimization completed.
    -- Stationary point found.
                           ----------------------------
                           !   Optimized Parameters   !
                           ! (Angstroms and Degrees)  !
 --------------------------                            --------------------------
 ! Name  Definition              Value          Derivative Info.                !
 --------------------------------------------------------------------------------
 ! R1    R(1,2)                  1.5843         -DE/DX =    0.0002              !
 ! R2    R(1,4)                  1.4351         -DE/DX =    0.0                 !
 ! R3    R(1,5)                  1.4109         -DE/DX =    0.0                 !
 ! R4    R(1,6)                  1.4352         -DE/DX =    0.0                 !
 ! R5    R(2,3)                  1.0243         -DE/DX =    0.0001              !
 ! A1    A(2,1,4)              121.5816         -DE/DX =    0.0                 !
 ! A2    A(2,1,5)              109.7017         -DE/DX =    0.0                 !
 ! A3    A(2,1,6)              121.5788         -DE/DX =    0.0                 !
 ! A4    A(4,1,5)              101.2867         -DE/DX =    0.0                 !
 ! A5    A(4,1,6)               97.9977         -DE/DX =    0.0                 !
 ! A6    A(5,1,6)              101.2627         -DE/DX =    0.0                 !
 ! A7    A(1,2,3)              111.4785         -DE/DX =   -0.0001              !
 ! D1    D(4,1,2,3)            -62.2603         -DE/DX =    0.0                 !
 ! D2    D(5,1,2,3)            180.0834         -DE/DX =    0.0                 !
 ! D3    D(6,1,2,3)             62.4622         -DE/DX =    0.0                 !
 --------------------------------------------------------------------------------
 Lowest energy point so far.  Saving SCF results.
 Largest change from initial coordinates is atom    4       0.262 Angstoms.
 GradGradGradGradGradGradGradGradGradGradGradGradGradGradGradGradGradGrad

 Leave Link  103 at Wed Jun 24 00:57:49 2026, MaxMem=  1879048192 cpu:               0.0 elap:               0.0
 (Enter /CH/g16/l202.exe)
                          Input orientation:                          
 ---------------------------------------------------------------------
 Center     Atomic      Atomic             Coordinates (Angstroms)
 Number     Number       Type             X           Y           Z
 ---------------------------------------------------------------------
      1         15           0        0.079786    0.038877    0.096434
      2          7           0        1.645917   -0.009128    0.330980
      3          1           0        2.109938    0.813420   -0.065646
      4          1           0       -0.732064    1.082547    0.654229
      5          1           0       -0.520586   -1.107839    0.657773
      6          1           0       -0.482992    0.032124   -1.223770
 ---------------------------------------------------------------------
                    Distance matrix (angstroms):
                    1          2          3          4          5
     1  P    0.000000
     2  N    1.584323   0.000000
     3  H    2.178923   1.024311   0.000000
     4  H    1.435090   2.636481   2.944083   0.000000
     5  H    1.410852   2.451060   3.336799   2.200574   0.000000
     6  H    1.435167   2.636512   2.945328   2.166172   2.200257
                    6
     6  H    0.000000
 Stoichiometry    H4NP
 Framework group  C1[X(H4NP)]
 Deg. of freedom    12
 Full point group                 C1      NOp   1
 RotChk:  IX=2 Diff= 4.20D-15
 Largest Abelian subgroup         C1      NOp   1
 Largest concise Abelian subgroup C1      NOp   1
                         Standard orientation:                         
 ---------------------------------------------------------------------
 Center     Atomic      Atomic             Coordinates (Angstroms)
 Number     Number       Type             X           Y           Z
 ---------------------------------------------------------------------
      1         15           0        0.426715   -0.008652    0.000023
      2          7           0       -1.151373    0.131765   -0.000004
      3          1           0       -1.609430   -0.784421   -0.000323
      4          1           0        1.124848   -0.642418    1.081888
      5          1           0        1.018198    1.272225    0.002401
      6          1           0        1.125263   -0.637956   -1.084280
 ---------------------------------------------------------------------
 Rotational constants (GHZ):          89.7498179          15.4138201          15.0011492
 Leave Link  202 at Wed Jun 24 00:57:49 2026, MaxMem=  1879048192 cpu:               0.0 elap:               0.0
 (Enter /CH/g16/l601.exe)
 Copying SCF densities to generalized density rwf, IOpCl= 0 IROHF=0.

 **********************************************************************

            Population analysis using the SCF Density.

 **********************************************************************

 Orbital symmetries:
       Occupied  (A) (A) (A) (A) (A) (A) (A) (A) (A) (A) (A) (A)
                 (A)
       Virtual   (A) (A) (A) (A) (A) (A) (A) (A) (A) (A) (A) (A)
                 (A) (A) (A) (A) (A) (A) (A) (A) (A) (A) (A) (A)
                 (A) (A) (A) (A) (A) (A) (A) (A) (A) (A) (A) (A)
                 (A) (A) (A)
 The electronic state is 1-A.
 Alpha  occ. eigenvalues --  -77.11683 -14.25902  -6.60625  -4.77257  -4.77190
 Alpha  occ. eigenvalues --   -4.77085  -0.81635  -0.62026  -0.44646  -0.40790
 Alpha  occ. eigenvalues --   -0.39426  -0.26240  -0.22060
 Alpha virt. eigenvalues --    0.04721   0.05124   0.07455   0.08789   0.15053
 Alpha virt. eigenvalues --    0.32844   0.33757   0.40864   0.44008   0.49447
 Alpha virt. eigenvalues --    0.50969   0.62620   0.62873   0.63995   0.66784
 Alpha virt. eigenvalues --    0.78567   0.83456   0.88511   0.93526   0.95714
 Alpha virt. eigenvalues --    0.99476   1.08812   1.37144   1.42678   1.45276
 Alpha virt. eigenvalues --    1.49414   1.63141   1.67538   1.68380   1.80471
 Alpha virt. eigenvalues --    2.03811   2.12987   2.16486   2.23269   2.40395
 Alpha virt. eigenvalues --    2.58992   2.59709   2.80563   3.24182
          Condensed to atoms (all electrons):
               1          2          3          4          5          6
     1  P   12.980415   0.512920  -0.035443   0.311263   0.377009   0.311146
     2  N    0.512920   6.835084   0.331048  -0.024117  -0.035816  -0.024172
     3  H   -0.035443   0.331048   0.588987  -0.004148   0.005684  -0.004121
     4  H    0.311263  -0.024117  -0.004148   0.839341  -0.031074  -0.054558
     5  H    0.377009  -0.035816   0.005684  -0.031074   0.707563  -0.031185
     6  H    0.311146  -0.024172  -0.004121  -0.054558  -0.031185   0.839740
 Mulliken charges:
               1
     1  P    0.542690
     2  N   -0.594946
     3  H    0.117994
     4  H   -0.036707
     5  H    0.007820
     6  H   -0.036850
 Sum of Mulliken charges =   0.00000
 Mulliken charges with hydrogens summed into heavy atoms:
               1
     1  P    0.476953
     2  N   -0.476953
 Electronic spatial extent (au):  <R**2>=            131.2952
 Charge=             -0.0000 electrons
 Dipole moment (field-independent basis, Debye):
    X=              3.4011    Y=             -1.5798    Z=              0.0007  Tot=              3.7501
 Quadrupole moment (field-independent basis, Debye-Ang):
   XX=            -22.3036   YY=            -19.3859   ZZ=            -21.1106
   XY=              3.2837   XZ=              0.0028   YZ=              0.0008
 Traceless Quadrupole moment (field-independent basis, Debye-Ang):
   XX=             -1.3702   YY=              1.5475   ZZ=             -0.1773
   XY=              3.2837   XZ=              0.0028   YZ=              0.0008
 Octapole moment (field-independent basis, Debye-Ang**2):
  XXX=              3.8491  YYY=             -1.0455  ZZZ=              0.0041  XYY=              0.2057
  XXY=             -4.2170  XXZ=              0.0016  XZZ=              1.1239  YZZ=             -0.1395
  YYZ=              0.0009  XYZ=             -0.0004
 Hexadecapole moment (field-independent basis, Debye-Ang**3):
 XXXX=           -111.8513 YYYY=            -36.2120 ZZZZ=            -36.7300 XXXY=              9.3710
 XXXZ=              0.0080 YYYX=              4.5134 YYYZ=              0.0032 ZZZX=              0.0052
 ZZZY=             -0.0006 XXYY=            -23.5225 XXZZ=            -26.2222 YYZZ=            -12.5411
 XXYZ=              0.0014 YYXZ=              0.0035 ZZXY=              0.9446
 N-N= 6.458074671662D+01 E-N=-1.073125969535D+03  KE= 3.966525872528D+02
 No NMR shielding tensors so no spin-rotation constants.
 Leave Link  601 at Wed Jun 24 00:57:50 2026, MaxMem=  1879048192 cpu:               0.3 elap:               0.0
 (Enter /CH/g16/l9999.exe)
 Unable to Open any file for archive entry.
 1\1\GINC-NODE0-CHCLUSTER\FOpt\RB3LYP\def2SVP\H4N1P1\LS\24-Jun-2026\0\\
 #p B3LYP/def2SVP EmpiricalDispersion=GD3BJ opt SCRF=(SMD,Solvent=Tetra
 hydrofuran) int=ultrafine\\phosphazene\\0,1\P,0.079786356,0.0388766355
 ,0.0964344978\N,1.6459166459,-0.0091279085,0.3309797672\H,2.1099381762
 ,0.8134200702,-0.0656458691\H,-0.7320636727,1.0825466993,0.6542285984\
 H,-0.5205858465,-1.107839295,0.6577726754\H,-0.4829916589,0.0321237985
 ,-1.2237696697\\Version=ES64L-G16RevC.02\State=1-A\HF=-398.3293302\RMS
 D=2.206e-09\RMSF=8.990e-05\Dipole=-1.323056,0.4801222,-0.4425012\Quadr
 upole=-0.9586416,1.0480561,-0.0894145,2.089581,-1.2752232,-0.3800848\P
 G=C01 [X(H4N1P1)]\\@
 The archive entry for this job was punched.


 THE RARE EARTHS PERPLEX US IN OUR RESEARCHES,
 BAFFLE US IN OUR SPECULATIONS, AND HAUNT US IN OUR
 VERY DREAMS.  THEY STRETCH LIKE AN UNKNOWN BEFORE US,
 MOCKING, MYSTIFYING, AND MURMURING STRANGE REVELATIONS
 AND POSSIBILITIES.  -- SIR WILLIAM CROOKE, 1832-1919
 Job cpu time:       0 days  0 hours  1 minutes 12.4 seconds.
 Elapsed time:       0 days  0 hours  0 minutes 11.4 seconds.
 File lengths (MBytes):  RWF=     19 Int=      0 D2E=      0 Chk=      2 Scr=      1
 Normal termination of Gaussian 16 at Wed Jun 24 00:57:50 2026.
