 Entering Gaussian System, Link 0=/CH/g16/g16
 Initial command:
 /CH/g16/l1.exe "/tmp/g16tz_phosphazene_cpxtz_2947290/Gau-2948741.inp" -scrdir="/tmp/g16tz_phosphazene_cpxtz_2947290/"
 Default is to use a total of  96 processors:
                               96 via shared-memory
                                1 via Linda
 Entering Link 1 = /CH/g16/l1.exe PID=   2948742.
  
 Copyright (c) 1988-2021, Gaussian, Inc.  All Rights Reserved.
  
 This is part of the Gaussian(R) 16 program.  It is based on
 the Gaussian(R) 09 system (copyright 2009, Gaussian, Inc.),
 the Gaussian(R) 03 system (copyright 2003, Gaussian, Inc.),
 the Gaussian(R) 98 system (copyright 1998, Gaussian, Inc.),
 the Gaussian(R) 94 system (copyright 1995, Gaussian, Inc.),
 the Gaussian 92(TM) system (copyright 1992, Gaussian, Inc.),
 the Gaussian 90(TM) system (copyright 1990, Gaussian, Inc.),
 the Gaussian 88(TM) system (copyright 1988, Gaussian, Inc.),
 the Gaussian 86(TM) system (copyright 1986, Carnegie Mellon
 University), and the Gaussian 82(TM) system (copyright 1983,
 Carnegie Mellon University). Gaussian is a federally registered
 trademark of Gaussian, Inc.
  
 This software contains proprietary and confidential information,
 including trade secrets, belonging to Gaussian, Inc.
  
 This software is provided under written license and may be
 used, copied, transmitted, or stored only in accord with that
 written license.
  
 The following legend is applicable only to US Government
 contracts under FAR:
  
                    RESTRICTED RIGHTS LEGEND
  
 Use, reproduction and disclosure by the US Government is
 subject to restrictions as set forth in subparagraphs (a)
 and (c) of the Commercial Computer Software - Restricted
 Rights clause in FAR 52.227-19.
  
 Gaussian, Inc.
 340 Quinnipiac St., Bldg. 40, Wallingford CT 06492
  
  
 ---------------------------------------------------------------
 Warning -- This program may not be used in any manner that
 competes with the business of Gaussian, Inc. or will provide
 assistance to any competitor of Gaussian, Inc.  The licensee
 of this program is prohibited from giving any competitor of
 Gaussian, Inc. access to this program.  By using this program,
 the user acknowledges that Gaussian, Inc. is engaged in the
 business of creating and licensing software in the field of
 computational chemistry and represents and warrants to the
 licensee that it is not a competitor of Gaussian, Inc. and that
 it will not use this program in any manner prohibited above.
 ---------------------------------------------------------------
  

 Cite this work as:
 Gaussian 16, Revision C.02,
 M. J. Frisch, G. W. Trucks, H. B. Schlegel, G. E. Scuseria, 
 M. A. Robb, J. R. Cheeseman, G. Scalmani, V. Barone, 
 G. A. Petersson, H. Nakatsuji, X. Li, M. Caricato, A. V. Marenich, 
 J. Bloino, B. G. Janesko, R. Gomperts, B. Mennucci, H. P. Hratchian, 
 J. V. Ortiz, A. F. Izmaylov, J. L. Sonnenberg, D. Williams-Young, 
 F. Ding, F. Lipparini, F. Egidi, J. Goings, B. Peng, A. Petrone, 
 T. Henderson, D. Ranasinghe, V. G. Zakrzewski, J. Gao, N. Rega, 
 G. Zheng, W. Liang, M. Hada, M. Ehara, K. Toyota, R. Fukuda, 
 J. Hasegawa, M. Ishida, T. Nakajima, Y. Honda, O. Kitao, H. Nakai, 
 T. Vreven, K. Throssell, J. A. Montgomery, Jr., J. E. Peralta, 
 F. Ogliaro, M. J. Bearpark, J. J. Heyd, E. N. Brothers, K. N. Kudin, 
 V. N. Staroverov, T. A. Keith, R. Kobayashi, J. Normand, 
 K. Raghavachari, A. P. Rendell, J. C. Burant, S. S. Iyengar, 
 J. Tomasi, M. Cossi, J. M. Millam, M. Klene, C. Adamo, R. Cammi, 
 J. W. Ochterski, R. L. Martin, K. Morokuma, O. Farkas, 
 J. B. Foresman, and D. J. Fox, Gaussian, Inc., Wallingford CT, 2019.
 
 ******************************************
 Gaussian 16:  ES64L-G16RevC.02  7-Dec-2021
                24-Jun-2026 
 ******************************************
 %chk=phosphazene_cpxtz.chk
 %nprocshared=8
 Will use up to    8 processors via shared memory.
 %mem=14GB
 ----------------------------------------------------------------------
 #p B3LYP/def2TZVP EmpiricalDispersion=GD3BJ SCRF=(SMD,Solvent=Tetrahyd
 rofuran) int=ultrafine
 ----------------------------------------------------------------------
 1/38=1,172=1/1;
 2/12=2,17=6,18=5,40=1/2;
 3/5=44,7=101,11=2,25=1,30=1,70=32201,72=20,74=-5,75=-5,124=41/1,2,3;
 4//1;
 5/5=2,38=5,53=20/2;
 6/7=2,8=2,9=2,10=2,28=1/1;
 99/5=1,9=1/99;
 Leave Link    1 at Wed Jun 24 01:17:44 2026, MaxMem=  1879048192 cpu:               1.2 elap:               0.0
 (Enter /CH/g16/l101.exe)
 -----------------
 phosphazene_cpxtz
 -----------------
 Symbolic Z-matrix:
 Charge = -1 Multiplicity = 1
 P                     3.15606  -0.36759  -0.04481 
 N                     2.78504   1.15804   0.17451 
 H                     1.90083   1.40333  -0.27811 
 H                     2.33249  -1.41817   0.45943 
 H                     4.38432  -0.63304   0.60198 
 H                     3.41839  -0.90482  -1.34822 
 Al                   -0.97664  -0.00927   0.01828 
 Cl                   -0.77599   2.13506   0.20914 
 Cl                   -0.27953  -1.00947   1.80378 
 Cl                    0.20936  -0.65962  -1.68419 
 Cl                   -3.04653  -0.52003  -0.3418 
 
 ITRead=  0  0  0  0  0  0  0  0  0  0  0
 MicOpt= -1 -1 -1 -1 -1 -1 -1 -1 -1 -1 -1
 NAtoms=     11 NQM=       11 NQMF=       0 NMMI=      0 NMMIF=      0
                NMic=       0 NMicF=      0.
                    Isotopes and Nuclear Properties:
 (Nuclear quadrupole moments (NQMom) in fm**2, nuclear magnetic moments (NMagM)
  in nuclear magnetons)

  Atom         1           2           3           4           5           6           7           8           9          10
 IAtWgt=          31          14           1           1           1           1          27          35          35          35
 AtmWgt=  30.9737634  14.0030740   1.0078250   1.0078250   1.0078250   1.0078250  26.9815413  34.9688527  34.9688527  34.9688527
 NucSpn=           1           2           1           1           1           1           5           3           3           3
 AtZEff=  -0.0000000  -0.0000000  -0.0000000  -0.0000000  -0.0000000  -0.0000000  -0.0000000  -0.0000000  -0.0000000  -0.0000000
 NQMom=    0.0000000   2.0440000   0.0000000   0.0000000   0.0000000   0.0000000  14.6600000  -8.1650000  -8.1650000  -8.1650000
 NMagM=    1.1316000   0.4037610   2.7928460   2.7928460   2.7928460   2.7928460   3.6415040   0.8218740   0.8218740   0.8218740
 AtZNuc=  15.0000000   7.0000000   1.0000000   1.0000000   1.0000000   1.0000000  13.0000000  17.0000000  17.0000000  17.0000000

  Atom        11
 IAtWgt=          35
 AtmWgt=  34.9688527
 NucSpn=           3
 AtZEff=  -0.0000000
 NQMom=   -8.1650000
 NMagM=    0.8218740
 AtZNuc=  17.0000000
 Leave Link  101 at Wed Jun 24 01:17:44 2026, MaxMem=  1879048192 cpu:               0.1 elap:               0.1
 (Enter /CH/g16/l202.exe)
                          Input orientation:                          
 ---------------------------------------------------------------------
 Center     Atomic      Atomic             Coordinates (Angstroms)
 Number     Number       Type             X           Y           Z
 ---------------------------------------------------------------------
      1         15           0        3.156060   -0.367590   -0.044810
      2          7           0        2.785040    1.158040    0.174510
      3          1           0        1.900830    1.403330   -0.278110
      4          1           0        2.332490   -1.418170    0.459430
      5          1           0        4.384320   -0.633040    0.601980
      6          1           0        3.418390   -0.904820   -1.348220
      7         13           0       -0.976640   -0.009270    0.018280
      8         17           0       -0.775990    2.135060    0.209140
      9         17           0       -0.279530   -1.009470    1.803780
     10         17           0        0.209360   -0.659620   -1.684190
     11         17           0       -3.046530   -0.520030   -0.341800
 ---------------------------------------------------------------------
                    Distance matrix (angstroms):
                    1          2          3          4          5
     1  P    0.000000
     2  N    1.585340   0.000000
     3  H    2.183160   1.023161   0.000000
     4  H    1.426970   2.631129   2.948077   0.000000
     5  H    1.413302   2.438933   3.330028   2.201535   0.000000
     6  H    1.433984   2.641066   2.962377   2.170324   2.193209
     7  Al   4.148684   3.941733   3.219180   3.623528   5.428599
     8  Cl   4.667844   3.692791   2.817482   4.727657   5.869029
     9  Cl   3.953805   4.091969   3.861326   2.965967   4.830892
    10  Cl   3.384655   3.659615   3.015608   3.110978   4.759997
    11  Cl   6.211567   6.090132   5.308459   5.512031   7.491397
                    6          7          8          9         10
     6  H    0.000000
     7  Al   4.688883   0.000000
     8  Cl   5.409165   2.162138   0.000000
     9  Cl   4.860110   2.162030   3.560536   0.000000
    10  Cl   3.235873   2.174386   3.516511   3.539399   0.000000
    11  Cl   6.554093   2.162170   3.536720   3.535443   3.524531
                   11
    11  Cl   0.000000
 Stoichiometry    AlCl4H4NP(1-)
 Framework group  C1[X(AlCl4H4NP)]
 Deg. of freedom    27
 Full point group                 C1      NOp   1
 Largest Abelian subgroup         C1      NOp   1
 Largest concise Abelian subgroup C1      NOp   1
                         Standard orientation:                         
 ---------------------------------------------------------------------
 Center     Atomic      Atomic             Coordinates (Angstroms)
 Number     Number       Type             X           Y           Z
 ---------------------------------------------------------------------
      1         15           0        3.156059   -0.367592   -0.044810
      2          7           0        2.785038    1.158038    0.174510
      3          1           0        1.900828    1.403328   -0.278110
      4          1           0        2.332489   -1.418172    0.459430
      5          1           0        4.384319   -0.633042    0.601980
      6          1           0        3.418389   -0.904822   -1.348220
      7         13           0       -0.976641   -0.009272    0.018280
      8         17           0       -0.775992    2.135058    0.209140
      9         17           0       -0.279531   -1.009472    1.803780
     10         17           0        0.209359   -0.659622   -1.684190
     11         17           0       -3.046531   -0.520032   -0.341800
 ---------------------------------------------------------------------
 Rotational constants (GHZ):           1.0766005           0.4795852           0.4679069
 Leave Link  202 at Wed Jun 24 01:17:44 2026, MaxMem=  1879048192 cpu:               0.0 elap:               0.0
 (Enter /CH/g16/l301.exe)
 Standard basis: def2TZVP (5D, 7F)
 Ernie: Thresh=  0.10000D-02 Tol=  0.10000D-05 Strict=F.
 There are   312 symmetry adapted cartesian basis functions of A   symmetry.
 There are   277 symmetry adapted basis functions of A   symmetry.
   277 basis functions,   497 primitive gaussians,   312 cartesian basis functions
    54 alpha electrons       54 beta electrons
       nuclear repulsion energy       802.4749976508 Hartrees.
 IExCor=  402 DFT=T Ex+Corr=B3LYP ExCW=0 ScaHFX=  0.200000
 ScaDFX=  0.800000  0.720000  1.000000  0.810000 ScalE2=  1.000000  1.000000
 IRadAn=      5 IRanWt=     -1 IRanGd=            0 ICorTp=0 IEmpDi=141
 NAtoms=   11 NActive=   11 NUniq=   11 SFac= 1.00D+00 NAtFMM=   60 NAOKFM=F Big=F
 Integral buffers will be    131072 words long.
 Raffenetti 2 integral format.
 Two-electron integral symmetry is turned on.
 R6Disp:  Grimme-D3(BJ) Dispersion energy=       -0.0295862392 Hartrees.
 Nuclear repulsion after empirical dispersion term =      802.4454114116 Hartrees.
 ------------------------------------------------------------------------------
 Polarizable Continuum Model (PCM)
 =================================
 Model                : PCM.
 Atomic radii         : SMD-Coulomb.
 Polarization charges : Total charges.
 Charge compensation  : None.
 Solution method      : On-the-fly selection.
 Cavity type          : VdW (van der Waals Surface) (Alpha=1.000).
 Cavity algorithm     : GePol (No added spheres)
                        Default sphere list used, NSphG=   11.
                        Lebedev-Laikov grids with approx.  5.0 points / Ang**2.
                        Smoothing algorithm: York/Karplus (Gamma=1.0000).
                        Polarization charges: spherical gaussians, with
                                              point-specific exponents (IZeta= 3).
                        Self-potential: point-specific (ISelfS= 7).
                        Self-field    : sphere-specific E.n sum rule (ISelfD= 2).
 Solvent              : TetraHydroFuran, Eps=   7.425700 Eps(inf)=   1.974025
 ------------------------------------------------------------------------------
 Spheres list:
 ISph  on   Nord     Re0    Alpha      Xe            Ye            Ze
    1   P      1    2.1200  1.000      3.156059     -0.367592     -0.044810
    2   N      2    1.8900  1.000      2.785038      1.158038      0.174510
    3   H      3    1.2000  1.000      1.900828      1.403328     -0.278110
    4   H      4    1.2000  1.000      2.332489     -1.418172      0.459430
    5   H      5    1.2000  1.000      4.384319     -0.633042      0.601980
    6   H      6    1.2000  1.000      3.418389     -0.904822     -1.348220
    7  Al      7    2.3000  1.000     -0.976641     -0.009272      0.018280
    8  Cl      8    2.3800  1.000     -0.775992      2.135058      0.209140
    9  Cl      9    2.3800  1.000     -0.279531     -1.009472      1.803780
   10  Cl     10    2.3800  1.000      0.209359     -0.659622     -1.684190
   11  Cl     11    2.3800  1.000     -3.046531     -0.520032     -0.341800
 ------------------------------------------------------------------------------
 GePol: Number of generator spheres                  =      11
 GePol: Total number of spheres                      =      11
 GePol: Number of exposed spheres                    =      11 (100.00%)
 GePol: Number of points                             =    1616
 GePol: Average weight of points                     =       0.15
 GePol: Minimum weight of points                     =   0.18D-08
 GePol: Maximum weight of points                     =    0.20615
 GePol: Number of points with low weight             =      32
 GePol: Fraction of low-weight points (<1% of avg)   =       1.98%
 GePol: Cavity surface area                          =    236.931 Ang**2
 GePol: Cavity volume                                =    249.013 Ang**3
 ------------------------------------------------------------------------------
 Atomic radii for non-electrostatic terms: SMD-CDS.
 ------------------------------------------------------------------------------
 PCM non-electrostatic energy =        -0.0005997993 Hartrees.
 Nuclear repulsion after PCM non-electrostatic terms =      802.4448116122 Hartrees.
 Leave Link  301 at Wed Jun 24 01:17:44 2026, MaxMem=  1879048192 cpu:               0.0 elap:               0.0
 (Enter /CH/g16/l302.exe)
 NPDir=0 NMtPBC=     1 NCelOv=     1 NCel=       1 NClECP=     1 NCelD=      1
         NCelK=      1 NCelE2=     1 NClLst=     1 CellRange=     0.0.
 One-electron integrals computed using PRISM.
 One-electron integral symmetry used in STVInt
   1 Symmetry operations used in ECPInt.
 ECPInt:  NShTT=    5565 NPrTT=   21571 LenC2=    5055 LenP2D=   13705.
 LDataN:  DoStor=T MaxTD1= 6 Len=  172
 NBasis=   277 RedAO= T EigKep=  1.84D-03  NBF=   277
 NBsUse=   277 1.00D-06 EigRej= -1.00D+00 NBFU=   277
 Precomputing XC quadrature grid using
 IXCGrd= 4 IRadAn=           5 IRanWt=          -1 IRanGd=           0 AccXCQ= 0.00D+00.
 Generated NRdTot=       0 NPtTot=           0 NUsed=           0 NTot=          32
 NSgBfM=   303   303   303   303   303 MxSgAt=    11 MxSgA2=    11.
 Leave Link  302 at Wed Jun 24 01:17:44 2026, MaxMem=  1879048192 cpu:               0.6 elap:               0.1
 (Enter /CH/g16/l303.exe)
 DipDrv:  MaxL=1.
 Leave Link  303 at Wed Jun 24 01:17:44 2026, MaxMem=  1879048192 cpu:               0.1 elap:               0.0
 (Enter /CH/g16/l401.exe)
 ExpMin= 5.79D-02 ExpMax= 6.95D+04 ExpMxC= 2.37D+03 IAcc=3 IRadAn=         5 AccDes= 0.00D+00
 Harris functional with IExCor=  402 and IRadAn=       5 diagonalized for initial guess.
 HarFok:  IExCor=  402 AccDes= 0.00D+00 IRadAn=         5 IDoV= 1 UseB2=F ITyADJ=14
 ICtDFT=  3500011 ScaDFX=  1.000000  1.000000  1.000000  1.000000
 FoFCou: FMM=F IPFlag=           0 FMFlag=      100000 FMFlg1=           0
         NFxFlg=           0 DoJE=T BraDBF=F KetDBF=T FulRan=T
         wScrn=  0.000000 ICntrl=       500 IOpCl=  0 I1Cent=   200000004 NGrid=           0
         NMat0=    1 NMatS0=      1 NMatT0=    0 NMatD0=    1 NMtDS0=    0 NMtDT0=    0
 Petite list used in FoFCou.
 Harris En= -2482.08187889125    
 JPrj=0 DoOrth=F DoCkMO=F.
 Leave Link  401 at Wed Jun 24 01:17:45 2026, MaxMem=  1879048192 cpu:               2.5 elap:               0.4
 (Enter /CH/g16/l502.exe)
 Keep R1 ints in memory in canonical form, NReq=756593434.
 FoFCou: FMM=F IPFlag=           0 FMFlag=           0 FMFlg1=           0
         NFxFlg=           0 DoJE=F BraDBF=F KetDBF=F FulRan=T
         wScrn=  0.000000 ICntrl=       600 IOpCl=  0 I1Cent=           0 NGrid=           0
         NMat0=    1 NMatS0=  38503 NMatT0=    0 NMatD0=    1 NMtDS0=    0 NMtDT0=    0
 Symmetry not used in FoFCou.
 Two-electron integral symmetry not used.
 Closed shell SCF:
 Using DIIS extrapolation, IDIIS=  1040.
 NGot=  1879048192 LenX=  1137588238 LenY=  1137490453
 Requested convergence on RMS density matrix=1.00D-08 within 128 cycles.
 Requested convergence on MAX density matrix=1.00D-06.
 Requested convergence on             energy=1.00D-06.
 No special actions if energy rises.

 Cycle   1  Pass 1  IDiag  1:
 Inv3:  Mode=1 IEnd=     7834368.
 Iteration    1 A*A^-1 deviation from unit magnitude is 3.77D-15 for    203.
 Iteration    1 A*A^-1 deviation from orthogonality  is 1.53D-15 for    269     85.
 Iteration    1 A^-1*A deviation from unit magnitude is 3.33D-15 for    203.
 Iteration    1 A^-1*A deviation from orthogonality  is 2.18D-15 for   1453    481.
 E= -2482.21319151356    
 DIIS: error= 3.51D-02 at cycle   1 NSaved=   1.
 NSaved= 1 IEnMin= 1 EnMin= -2482.21319151356     IErMin= 1 ErrMin= 3.51D-02
 ErrMax= 3.51D-02  0.00D+00 EMaxC= 1.00D-01 BMatC= 3.08D-01 BMatP= 3.08D-01
 IDIUse=3 WtCom= 6.49D-01 WtEn= 3.51D-01
 Coeff-Com:  0.100D+01
 Coeff-En:   0.100D+01
 Coeff:      0.100D+01
 Gap=     0.329 Goal=   None    Shift=    0.000
 GapD=    0.329 DampG=1.000 DampE=0.500 DampFc=0.5000 IDamp=-1.
 Damping current iteration by 5.00D-01
 RMSDP=3.87D-03 MaxDP=2.25D-01              OVMax= 4.28D-01

 Cycle   2  Pass 1  IDiag  1:
 E= -2482.21739298834     Delta-E=       -0.004201474780 Rises=F Damp=T
 DIIS: error= 1.48D-02 at cycle   2 NSaved=   2.
 NSaved= 2 IEnMin= 2 EnMin= -2482.21739298834     IErMin= 2 ErrMin= 1.48D-02
 ErrMax= 1.48D-02  0.00D+00 EMaxC= 1.00D-01 BMatC= 6.21D-02 BMatP= 3.08D-01
 IDIUse=3 WtCom= 8.52D-01 WtEn= 1.48D-01
 Coeff-Com:  0.210D+00 0.790D+00
 Coeff-En:   0.491D+00 0.509D+00
 Coeff:      0.251D+00 0.749D+00
 Gap=     0.249 Goal=   None    Shift=    0.000
 RMSDP=1.45D-03 MaxDP=8.87D-02 DE=-4.20D-03 OVMax= 3.33D-01

 Cycle   3  Pass 1  IDiag  1:
 E= -2482.37746801541     Delta-E=       -0.160075027073 Rises=F Damp=F
 DIIS: error= 1.09D-02 at cycle   3 NSaved=   3.
 NSaved= 3 IEnMin= 3 EnMin= -2482.37746801541     IErMin= 3 ErrMin= 1.09D-02
 ErrMax= 1.09D-02  0.00D+00 EMaxC= 1.00D-01 BMatC= 1.77D-02 BMatP= 6.21D-02
 IDIUse=3 WtCom= 8.91D-01 WtEn= 1.09D-01
 Coeff-Com: -0.694D-01 0.319D+00 0.750D+00
 Coeff-En:   0.000D+00 0.000D+00 0.100D+01
 Coeff:     -0.618D-01 0.284D+00 0.778D+00
 Gap=     0.249 Goal=   None    Shift=    0.000
 RMSDP=4.23D-04 MaxDP=1.66D-02 DE=-1.60D-01 OVMax= 5.40D-02

 Cycle   4  Pass 1  IDiag  1:
 E= -2482.39304560786     Delta-E=       -0.015577592449 Rises=F Damp=F
 DIIS: error= 1.69D-03 at cycle   4 NSaved=   4.
 NSaved= 4 IEnMin= 4 EnMin= -2482.39304560786     IErMin= 4 ErrMin= 1.69D-03
 ErrMax= 1.69D-03  0.00D+00 EMaxC= 1.00D-01 BMatC= 1.27D-03 BMatP= 1.77D-02
 IDIUse=3 WtCom= 9.83D-01 WtEn= 1.69D-02
 Coeff-Com: -0.219D-01 0.923D-01 0.318D+00 0.611D+00
 Coeff-En:   0.000D+00 0.000D+00 0.000D+00 0.100D+01
 Coeff:     -0.215D-01 0.907D-01 0.313D+00 0.618D+00
 Gap=     0.252 Goal=   None    Shift=    0.000
 RMSDP=1.15D-04 MaxDP=6.06D-03 DE=-1.56D-02 OVMax= 7.91D-03

 Cycle   5  Pass 1  IDiag  1:
 E= -2482.39394061183     Delta-E=       -0.000895003974 Rises=F Damp=F
 DIIS: error= 3.15D-04 at cycle   5 NSaved=   5.
 NSaved= 5 IEnMin= 5 EnMin= -2482.39394061183     IErMin= 5 ErrMin= 3.15D-04
 ErrMax= 3.15D-04  0.00D+00 EMaxC= 1.00D-01 BMatC= 4.64D-05 BMatP= 1.27D-03
 IDIUse=3 WtCom= 9.97D-01 WtEn= 3.15D-03
 Coeff-Com: -0.611D-02 0.938D-02 0.469D-01 0.189D+00 0.761D+00
 Coeff-En:   0.000D+00 0.000D+00 0.000D+00 0.000D+00 0.100D+01
 Coeff:     -0.609D-02 0.935D-02 0.468D-01 0.188D+00 0.762D+00
 Gap=     0.252 Goal=   None    Shift=    0.000
 RMSDP=2.07D-05 MaxDP=1.31D-03 DE=-8.95D-04 OVMax= 1.19D-03

 Cycle   6  Pass 1  IDiag  1:
 E= -2482.39396793290     Delta-E=       -0.000027321070 Rises=F Damp=F
 DIIS: error= 1.15D-04 at cycle   6 NSaved=   6.
 NSaved= 6 IEnMin= 6 EnMin= -2482.39396793290     IErMin= 6 ErrMin= 1.15D-04
 ErrMax= 1.15D-04  0.00D+00 EMaxC= 1.00D-01 BMatC= 2.71D-06 BMatP= 4.64D-05
 IDIUse=3 WtCom= 9.99D-01 WtEn= 1.15D-03
 Coeff-Com: -0.159D-02 0.116D-02 0.784D-02 0.483D-01 0.302D+00 0.642D+00
 Coeff-En:   0.000D+00 0.000D+00 0.000D+00 0.000D+00 0.000D+00 0.100D+01
 Coeff:     -0.158D-02 0.116D-02 0.783D-02 0.483D-01 0.302D+00 0.642D+00
 Gap=     0.252 Goal=   None    Shift=    0.000
 RMSDP=6.42D-06 MaxDP=7.04D-04 DE=-2.73D-05 OVMax= 5.55D-04

 Cycle   7  Pass 1  IDiag  1:
 E= -2482.39397033332     Delta-E=       -0.000002400418 Rises=F Damp=F
 DIIS: error= 4.69D-05 at cycle   7 NSaved=   7.
 NSaved= 7 IEnMin= 7 EnMin= -2482.39397033332     IErMin= 7 ErrMin= 4.69D-05
 ErrMax= 4.69D-05  0.00D+00 EMaxC= 1.00D-01 BMatC= 3.94D-07 BMatP= 2.71D-06
 IDIUse=1 WtCom= 1.00D+00 WtEn= 0.00D+00
 Coeff-Com: -0.138D-04-0.391D-03-0.121D-02 0.280D-02 0.557D-01 0.313D+00
 Coeff-Com:  0.630D+00
 Coeff:     -0.138D-04-0.391D-03-0.121D-02 0.280D-02 0.557D-01 0.313D+00
 Coeff:      0.630D+00
 Gap=     0.252 Goal=   None    Shift=    0.000
 RMSDP=2.15D-06 MaxDP=2.26D-04 DE=-2.40D-06 OVMax= 1.67D-04

 Cycle   8  Pass 1  IDiag  1:
 E= -2482.39397077096     Delta-E=       -0.000000437635 Rises=F Damp=F
 DIIS: error= 4.84D-06 at cycle   8 NSaved=   8.
 NSaved= 8 IEnMin= 8 EnMin= -2482.39397077096     IErMin= 8 ErrMin= 4.84D-06
 ErrMax= 4.84D-06  0.00D+00 EMaxC= 1.00D-01 BMatC= 9.29D-09 BMatP= 3.94D-07
 IDIUse=1 WtCom= 1.00D+00 WtEn= 0.00D+00
 Coeff-Com:  0.784D-04-0.161D-03-0.672D-03-0.111D-02-0.804D-03 0.637D-01
 Coeff-Com:  0.196D+00 0.743D+00
 Coeff:      0.784D-04-0.161D-03-0.672D-03-0.111D-02-0.804D-03 0.637D-01
 Coeff:      0.196D+00 0.743D+00
 Gap=     0.252 Goal=   None    Shift=    0.000
 RMSDP=3.41D-07 MaxDP=1.90D-05 DE=-4.38D-07 OVMax= 1.46D-05

 Cycle   9  Pass 1  IDiag  1:
 E= -2482.39397077822     Delta-E=       -0.000000007266 Rises=F Damp=F
 DIIS: error= 7.05D-07 at cycle   9 NSaved=   9.
 NSaved= 9 IEnMin= 9 EnMin= -2482.39397077822     IErMin= 9 ErrMin= 7.05D-07
 ErrMax= 7.05D-07  0.00D+00 EMaxC= 1.00D-01 BMatC= 2.56D-10 BMatP= 9.29D-09
 IDIUse=1 WtCom= 1.00D+00 WtEn= 0.00D+00
 Coeff-Com:  0.228D-04-0.349D-04-0.189D-03-0.478D-03-0.244D-02 0.712D-02
 Coeff-Com:  0.360D-01 0.203D+00 0.757D+00
 Coeff:      0.228D-04-0.349D-04-0.189D-03-0.478D-03-0.244D-02 0.712D-02
 Coeff:      0.360D-01 0.203D+00 0.757D+00
 Gap=     0.252 Goal=   None    Shift=    0.000
 RMSDP=5.96D-08 MaxDP=4.57D-06 DE=-7.27D-09 OVMax= 3.22D-06

 Cycle  10  Pass 1  IDiag  1:
 E= -2482.39397077842     Delta-E=       -0.000000000202 Rises=F Damp=F
 DIIS: error= 2.59D-07 at cycle  10 NSaved=  10.
 NSaved=10 IEnMin=10 EnMin= -2482.39397077842     IErMin=10 ErrMin= 2.59D-07
 ErrMax= 2.59D-07  0.00D+00 EMaxC= 1.00D-01 BMatC= 2.66D-11 BMatP= 2.56D-10
 IDIUse=1 WtCom= 1.00D+00 WtEn= 0.00D+00
 Coeff-Com:  0.259D-05-0.362D-05-0.430D-04-0.999D-04-0.578D-03-0.141D-03
 Coeff-Com:  0.410D-02 0.370D-01 0.275D+00 0.684D+00
 Coeff:      0.259D-05-0.362D-05-0.430D-04-0.999D-04-0.578D-03-0.141D-03
 Coeff:      0.410D-02 0.370D-01 0.275D+00 0.684D+00
 Gap=     0.252 Goal=   None    Shift=    0.000
 RMSDP=1.85D-08 MaxDP=1.35D-06 DE=-2.02D-10 OVMax= 1.16D-06

 Cycle  11  Pass 1  IDiag  1:
 E= -2482.39397077842     Delta-E=        0.000000000008 Rises=F Damp=F
 DIIS: error= 6.14D-08 at cycle  11 NSaved=  11.
 NSaved=11 IEnMin=10 EnMin= -2482.39397077842     IErMin=11 ErrMin= 6.14D-08
 ErrMax= 6.14D-08  0.00D+00 EMaxC= 1.00D-01 BMatC= 1.29D-12 BMatP= 2.66D-11
 IDIUse=1 WtCom= 1.00D+00 WtEn= 0.00D+00
 Coeff-Com: -0.100D-05 0.166D-05-0.249D-05-0.487D-05-0.349D-04-0.513D-03
 Coeff-Com: -0.121D-02-0.242D-02 0.147D-01 0.178D+00 0.811D+00
 Coeff:     -0.100D-05 0.166D-05-0.249D-05-0.487D-05-0.349D-04-0.513D-03
 Coeff:     -0.121D-02-0.242D-02 0.147D-01 0.178D+00 0.811D+00
 Gap=     0.252 Goal=   None    Shift=    0.000
 RMSDP=4.73D-09 MaxDP=3.03D-07 DE= 7.73D-12 OVMax= 2.73D-07

 Error on total polarization charges =  0.01722
 SCF Done:  E(RB3LYP) =  -2482.39397078     A.U. after   11 cycles
            NFock= 11  Conv=0.47D-08     -V/T= 2.0017
 KE= 2.478147009930D+03 PE=-7.526878777332D+03 EE= 1.763892985012D+03
 SMD-CDS (non-electrostatic) energy       (kcal/mol) =      -0.38
 (included in total energy above)
 Leave Link  502 at Wed Jun 24 01:17:58 2026, MaxMem=  1879048192 cpu:              70.8 elap:              13.2
 (Enter /CH/g16/l601.exe)
 Copying SCF densities to generalized density rwf, IOpCl= 0 IROHF=0.

 **********************************************************************

            Population analysis using the SCF Density.

 **********************************************************************

 Orbital symmetries:
       Occupied  (A) (A) (A) (A) (A) (A) (A) (A) (A) (A) (A) (A)
                 (A) (A) (A) (A) (A) (A) (A) (A) (A) (A) (A) (A)
                 (A) (A) (A) (A) (A) (A) (A) (A) (A) (A) (A) (A)
                 (A) (A) (A) (A) (A) (A) (A) (A) (A) (A) (A) (A)
                 (A) (A) (A) (A) (A) (A)
       Virtual   (A) (A) (A) (A) (A) (A) (A) (A) (A) (A) (A) (A)
                 (A) (A) (A) (A) (A) (A) (A) (A) (A) (A) (A) (A)
                 (A) (A) (A) (A) (A) (A) (A) (A) (A) (A) (A) (A)
                 (A) (A) (A) (A) (A) (A) (A) (A) (A) (A) (A) (A)
                 (A) (A) (A) (A) (A) (A) (A) (A) (A) (A) (A) (A)
                 (A) (A) (A) (A) (A) (A) (A) (A) (A) (A) (A) (A)
                 (A) (A) (A) (A) (A) (A) (A) (A) (A) (A) (A) (A)
                 (A) (A) (A) (A) (A) (A) (A) (A) (A) (A) (A) (A)
                 (A) (A) (A) (A) (A) (A) (A) (A) (A) (A) (A) (A)
                 (A) (A) (A) (A) (A) (A) (A) (A) (A) (A) (A) (A)
                 (A) (A) (A) (A) (A) (A) (A) (A) (A) (A) (A) (A)
                 (A) (A) (A) (A) (A) (A) (A) (A) (A) (A) (A) (A)
                 (A) (A) (A) (A) (A) (A) (A) (A) (A) (A) (A) (A)
                 (A) (A) (A) (A) (A) (A) (A) (A) (A) (A) (A) (A)
                 (A) (A) (A) (A) (A) (A) (A) (A) (A) (A) (A) (A)
                 (A) (A) (A) (A) (A) (A) (A) (A) (A) (A) (A) (A)
                 (A) (A) (A) (A) (A) (A) (A) (A) (A) (A) (A) (A)
                 (A) (A) (A) (A) (A) (A) (A) (A) (A) (A) (A) (A)
                 (A) (A) (A) (A) (A) (A) (A)
 The electronic state is 1-A.
 Alpha  occ. eigenvalues -- -101.46713-101.46506-101.46458-101.46381 -77.09316
 Alpha  occ. eigenvalues --  -56.04348 -14.24206  -9.40146  -9.39926  -9.39881
 Alpha  occ. eigenvalues --   -9.39801  -7.15907  -7.15696  -7.15649  -7.15620
 Alpha  occ. eigenvalues --   -7.15606  -7.15570  -7.15395  -7.15388  -7.15350
 Alpha  occ. eigenvalues --   -7.15342  -7.15267  -7.15266  -6.57337  -4.73514
 Alpha  occ. eigenvalues --   -4.73431  -4.73259  -4.14449  -2.69770  -2.69756
 Alpha  occ. eigenvalues --   -2.69749  -0.81385  -0.78297  -0.76411  -0.76262
 Alpha  occ. eigenvalues --   -0.76153  -0.60960  -0.43738  -0.41343  -0.39645
 Alpha  occ. eigenvalues --   -0.38302  -0.34452  -0.34380  -0.34287  -0.30362
 Alpha  occ. eigenvalues --   -0.30147  -0.29487  -0.29432  -0.29251  -0.27607
 Alpha  occ. eigenvalues --   -0.27524  -0.27373  -0.26084  -0.21946
 Alpha virt. eigenvalues --    0.03225   0.04022   0.06287   0.06886   0.07799
 Alpha virt. eigenvalues --    0.09167   0.09305   0.09798   0.12411   0.14797
 Alpha virt. eigenvalues --    0.16185   0.17430   0.19256   0.19797   0.20903
 Alpha virt. eigenvalues --    0.21571   0.22580   0.25002   0.25636   0.26167
 Alpha virt. eigenvalues --    0.26395   0.30178   0.30976   0.31117   0.32176
 Alpha virt. eigenvalues --    0.33327   0.34920   0.35203   0.35864   0.37008
 Alpha virt. eigenvalues --    0.38154   0.38539   0.38946   0.39032   0.41227
 Alpha virt. eigenvalues --    0.41924   0.42653   0.43736   0.44725   0.45169
 Alpha virt. eigenvalues --    0.45862   0.46517   0.48465   0.50324   0.52319
 Alpha virt. eigenvalues --    0.53106   0.54076   0.56046   0.56875   0.57300
 Alpha virt. eigenvalues --    0.57701   0.58033   0.60060   0.61682   0.62682
 Alpha virt. eigenvalues --    0.62715   0.64674   0.65499   0.66887   0.67478
 Alpha virt. eigenvalues --    0.68316   0.68887   0.70610   0.76660   0.79061
 Alpha virt. eigenvalues --    0.80507   0.80747   0.84926   0.85755   0.88001
 Alpha virt. eigenvalues --    0.88477   0.90233   0.96548   1.04846   1.09375
 Alpha virt. eigenvalues --    1.09780   1.10167   1.10532   1.11280   1.11405
 Alpha virt. eigenvalues --    1.11574   1.11822   1.12590   1.12783   1.13810
 Alpha virt. eigenvalues --    1.14251   1.16490   1.18721   1.25819   1.27271
 Alpha virt. eigenvalues --    1.29991   1.32437   1.33580   1.40128   1.42297
 Alpha virt. eigenvalues --    1.46217   1.51956   1.64531   1.68404   1.69431
 Alpha virt. eigenvalues --    1.69828   1.72036   1.78241   1.78995   1.79810
 Alpha virt. eigenvalues --    1.80351   1.81926   1.82295   1.84180   1.85827
 Alpha virt. eigenvalues --    1.86259   1.86829   1.87140   1.89177   1.91086
 Alpha virt. eigenvalues --    1.91533   1.91830   1.92594   1.94422   1.95306
 Alpha virt. eigenvalues --    1.95832   1.96300   1.97563   1.98746   2.01322
 Alpha virt. eigenvalues --    2.02621   2.03852   2.04459   2.04907   2.05377
 Alpha virt. eigenvalues --    2.08764   2.09479   2.10279   2.10339   2.10542
 Alpha virt. eigenvalues --    2.11807   2.12209   2.12351   2.12440   2.12566
 Alpha virt. eigenvalues --    2.12799   2.13716   2.14666   2.15128   2.15575
 Alpha virt. eigenvalues --    2.16371   2.17660   2.18583   2.24580   2.25217
 Alpha virt. eigenvalues --    2.25354   2.25465   2.26406   2.27002   2.27680
 Alpha virt. eigenvalues --    2.28200   2.28724   2.29135   2.32611   2.32711
 Alpha virt. eigenvalues --    2.36322   2.40216   2.41266   2.43080   2.44160
 Alpha virt. eigenvalues --    2.45224   2.46823   2.47561   2.49687   2.50296
 Alpha virt. eigenvalues --    2.50659   2.51536   2.53947   2.54905   2.56784
 Alpha virt. eigenvalues --    2.58796   2.61753   2.67095   2.76881   2.81018
 Alpha virt. eigenvalues --    2.86060   2.89578   2.91016   2.95882   3.03015
 Alpha virt. eigenvalues --    3.33833   4.05225   4.08271   4.25107   4.33736
 Alpha virt. eigenvalues --    4.40171   4.49534   4.66054   4.79263   4.93388
 Alpha virt. eigenvalues --    4.98554   5.15906   5.55144   7.29666   7.36611
 Alpha virt. eigenvalues --    7.71657   7.81467   9.37991   9.38582   9.45156
 Alpha virt. eigenvalues --   10.73156  10.74296  10.77012  10.77501  10.77907
 Alpha virt. eigenvalues --   10.80046  10.80892  10.83382  10.98673  10.99630
 Alpha virt. eigenvalues --   11.00922  11.02100  15.33077  24.84077  24.84622
 Alpha virt. eigenvalues --   24.88075  25.09534  31.70808
          Condensed to atoms (all electrons):
               1          2          3          4          5          6
     1  P   13.085363   0.567713  -0.038695   0.341779   0.381741   0.347372
     2  N    0.567713   6.937277   0.334165  -0.046541  -0.029866  -0.035894
     3  H   -0.038695   0.334165   0.470219   0.002171   0.005114  -0.007662
     4  H    0.341779  -0.046541   0.002171   0.738595  -0.027692  -0.051203
     5  H    0.381741  -0.029866   0.005114  -0.027692   0.632151  -0.032255
     6  H    0.347372  -0.035894  -0.007662  -0.051203  -0.032255   0.741285
     7  Al   0.003564   0.011539   0.000303  -0.007915   0.000175   0.001345
     8  Cl  -0.000067  -0.007197   0.010462   0.000183  -0.000028  -0.000010
     9  Cl  -0.007229   0.000264  -0.001017   0.005259   0.000063   0.000296
    10  Cl   0.008880  -0.008993   0.004653  -0.003268   0.000910  -0.000377
    11  Cl   0.000009  -0.000022   0.000016   0.000001   0.000000   0.000001
               7          8          9         10         11
     1  P    0.003564  -0.000067  -0.007229   0.008880   0.000009
     2  N    0.011539  -0.007197   0.000264  -0.008993  -0.000022
     3  H    0.000303   0.010462  -0.001017   0.004653   0.000016
     4  H   -0.007915   0.000183   0.005259  -0.003268   0.000001
     5  H    0.000175  -0.000028   0.000063   0.000910   0.000000
     6  H    0.001345  -0.000010   0.000296  -0.000377   0.000001
     7  Al  10.825508   0.400177   0.400805   0.383417   0.408321
     8  Cl   0.400177  17.046952  -0.021673  -0.024698  -0.023831
     9  Cl   0.400805  -0.021673  17.051649  -0.022825  -0.023828
    10  Cl   0.383417  -0.024698  -0.022825  17.075233  -0.024415
    11  Cl   0.408321  -0.023831  -0.023828  -0.024415  17.048771
 Mulliken charges:
               1
     1  P    0.309570
     2  N   -0.722446
     3  H    0.220272
     4  H    0.048630
     5  H    0.069686
     6  H    0.037102
     7  Al   0.572760
     8  Cl  -0.380269
     9  Cl  -0.381763
    10  Cl  -0.388518
    11  Cl  -0.385024
 Sum of Mulliken charges =  -1.00000
 Mulliken charges with hydrogens summed into heavy atoms:
               1
     1  P    0.464989
     2  N   -0.502174
     7  Al   0.572760
     8  Cl  -0.380269
     9  Cl  -0.381763
    10  Cl  -0.388518
    11  Cl  -0.385024
 Electronic spatial extent (au):  <R**2>=           2573.5991
 Charge=             -1.0000 electrons
 Dipole moment (field-independent basis, Debye):
    X=              3.6573    Y=             -3.7200    Z=             -1.0785  Tot=              5.3270
 Quadrupole moment (field-independent basis, Debye-Ang):
   XX=           -102.5644   YY=            -99.4143   ZZ=            -96.3789
   XY=            -13.4506   XZ=             -2.6562   YZ=             -1.5595
 Traceless Quadrupole moment (field-independent basis, Debye-Ang):
   XX=             -3.1118   YY=              0.0382   ZZ=              3.0736
   XY=            -13.4506   XZ=             -2.6562   YZ=             -1.5595
 Octapole moment (field-independent basis, Debye-Ang**2):
  XXX=             41.9845  YYY=            -19.2696  ZZZ=             -2.6372  XYY=             -6.0865
  XXY=            -39.4062  XXZ=             -1.1919  XZZ=              0.5997  YZZ=              4.6089
  YYZ=             -4.9578  XYZ=             -4.2166
 Hexadecapole moment (field-independent basis, Debye-Ang**3):
 XXXX=          -2246.4072 YYYY=           -732.0303 ZZZZ=           -648.1423 XXXY=           -166.9146
 XXXZ=            -20.2500 YYYX=            -21.9548 YYYZ=             -4.8006 ZZZX=             -0.2786
 ZZZY=             -0.0040 XXYY=           -532.2180 XXZZ=           -469.3540 YYZZ=           -229.4144
 XXYZ=            -12.9043 YYXZ=             -3.5771 ZZXY=            -10.8888
 N-N= 8.024448116122D+02 E-N=-7.526878779594D+03  KE= 2.478147009930D+03
 No NMR shielding tensors so no spin-rotation constants.
 Leave Link  601 at Wed Jun 24 01:17:59 2026, MaxMem=  1879048192 cpu:               0.4 elap:               0.1
 (Enter /CH/g16/l9999.exe)
 Unable to Open any file for archive entry.
 1\1\GINC-NODE0-CHCLUSTER\SP\RB3LYP\def2TZVP\Al1Cl4H4N1P1(1-)\LS\24-Jun
 -2026\0\\#p B3LYP/def2TZVP EmpiricalDispersion=GD3BJ SCRF=(SMD,Solvent
 =Tetrahydrofuran) int=ultrafine\\phosphazene_cpxtz\\-1,1\P,0,3.15606,-
 0.36759,-0.04481\N,0,2.78504,1.15804,0.17451\H,0,1.90083,1.40333,-0.27
 811\H,0,2.33249,-1.41817,0.45943\H,0,4.38432,-0.63304,0.60198\H,0,3.41
 839,-0.90482,-1.34822\Al,0,-0.97664,-0.00927,0.01828\Cl,0,-0.77599,2.1
 3506,0.20914\Cl,0,-0.27953,-1.00947,1.80378\Cl,0,0.20936,-0.65962,-1.6
 8419\Cl,0,-3.04653,-0.52003,-0.3418\\Version=ES64L-G16RevC.02\State=1-
 A\HF=-2482.3939708\RMSD=4.729e-09\Dipole=1.4388886,-1.4635509,-0.42432
 31\Quadrupole=-2.313579,0.0284072,2.2851718,-10.000168,-1.9748034,-1.1
 594554\PG=C01 [X(Al1Cl4H4N1P1)]\\@
 The archive entry for this job was punched.


 MY GROUP MEETINGS AREN'T VERY STRUCTURED.
     -- PROF. M. S. GORDON, OCT. 5, 1984
 Job cpu time:       0 days  0 hours  1 minutes 16.4 seconds.
 Elapsed time:       0 days  0 hours  0 minutes 14.0 seconds.
 File lengths (MBytes):  RWF=     77 Int=      0 D2E=      0 Chk=      6 Scr=      1
 Normal termination of Gaussian 16 at Wed Jun 24 01:17:59 2026.
