 Entering Gaussian System, Link 0=/CH/g16/g16
 Initial command:
 /CH/g16/l1.exe "/tmp/g16tz_phosphazene_tz_2947290/Gau-2947317.inp" -scrdir="/tmp/g16tz_phosphazene_tz_2947290/"
 Default is to use a total of  96 processors:
                               96 via shared-memory
                                1 via Linda
 Entering Link 1 = /CH/g16/l1.exe PID=   2947370.
  
 Copyright (c) 1988-2021, Gaussian, Inc.  All Rights Reserved.
  
 This is part of the Gaussian(R) 16 program.  It is based on
 the Gaussian(R) 09 system (copyright 2009, Gaussian, Inc.),
 the Gaussian(R) 03 system (copyright 2003, Gaussian, Inc.),
 the Gaussian(R) 98 system (copyright 1998, Gaussian, Inc.),
 the Gaussian(R) 94 system (copyright 1995, Gaussian, Inc.),
 the Gaussian 92(TM) system (copyright 1992, Gaussian, Inc.),
 the Gaussian 90(TM) system (copyright 1990, Gaussian, Inc.),
 the Gaussian 88(TM) system (copyright 1988, Gaussian, Inc.),
 the Gaussian 86(TM) system (copyright 1986, Carnegie Mellon
 University), and the Gaussian 82(TM) system (copyright 1983,
 Carnegie Mellon University). Gaussian is a federally registered
 trademark of Gaussian, Inc.
  
 This software contains proprietary and confidential information,
 including trade secrets, belonging to Gaussian, Inc.
  
 This software is provided under written license and may be
 used, copied, transmitted, or stored only in accord with that
 written license.
  
 The following legend is applicable only to US Government
 contracts under FAR:
  
                    RESTRICTED RIGHTS LEGEND
  
 Use, reproduction and disclosure by the US Government is
 subject to restrictions as set forth in subparagraphs (a)
 and (c) of the Commercial Computer Software - Restricted
 Rights clause in FAR 52.227-19.
  
 Gaussian, Inc.
 340 Quinnipiac St., Bldg. 40, Wallingford CT 06492
  
  
 ---------------------------------------------------------------
 Warning -- This program may not be used in any manner that
 competes with the business of Gaussian, Inc. or will provide
 assistance to any competitor of Gaussian, Inc.  The licensee
 of this program is prohibited from giving any competitor of
 Gaussian, Inc. access to this program.  By using this program,
 the user acknowledges that Gaussian, Inc. is engaged in the
 business of creating and licensing software in the field of
 computational chemistry and represents and warrants to the
 licensee that it is not a competitor of Gaussian, Inc. and that
 it will not use this program in any manner prohibited above.
 ---------------------------------------------------------------
  

 Cite this work as:
 Gaussian 16, Revision C.02,
 M. J. Frisch, G. W. Trucks, H. B. Schlegel, G. E. Scuseria, 
 M. A. Robb, J. R. Cheeseman, G. Scalmani, V. Barone, 
 G. A. Petersson, H. Nakatsuji, X. Li, M. Caricato, A. V. Marenich, 
 J. Bloino, B. G. Janesko, R. Gomperts, B. Mennucci, H. P. Hratchian, 
 J. V. Ortiz, A. F. Izmaylov, J. L. Sonnenberg, D. Williams-Young, 
 F. Ding, F. Lipparini, F. Egidi, J. Goings, B. Peng, A. Petrone, 
 T. Henderson, D. Ranasinghe, V. G. Zakrzewski, J. Gao, N. Rega, 
 G. Zheng, W. Liang, M. Hada, M. Ehara, K. Toyota, R. Fukuda, 
 J. Hasegawa, M. Ishida, T. Nakajima, Y. Honda, O. Kitao, H. Nakai, 
 T. Vreven, K. Throssell, J. A. Montgomery, Jr., J. E. Peralta, 
 F. Ogliaro, M. J. Bearpark, J. J. Heyd, E. N. Brothers, K. N. Kudin, 
 V. N. Staroverov, T. A. Keith, R. Kobayashi, J. Normand, 
 K. Raghavachari, A. P. Rendell, J. C. Burant, S. S. Iyengar, 
 J. Tomasi, M. Cossi, J. M. Millam, M. Klene, C. Adamo, R. Cammi, 
 J. W. Ochterski, R. L. Martin, K. Morokuma, O. Farkas, 
 J. B. Foresman, and D. J. Fox, Gaussian, Inc., Wallingford CT, 2019.
 
 ******************************************
 Gaussian 16:  ES64L-G16RevC.02  7-Dec-2021
                24-Jun-2026 
 ******************************************
 %chk=phosphazene_tz.chk
 %nprocshared=8
 Will use up to    8 processors via shared memory.
 %mem=14GB
 ----------------------------------------------------------------------
 #p B3LYP/def2TZVP EmpiricalDispersion=GD3BJ SCRF=(SMD,Solvent=Tetrahyd
 rofuran) int=ultrafine
 ----------------------------------------------------------------------
 1/38=1,172=1/1;
 2/12=2,17=6,18=5,40=1/2;
 3/5=44,7=101,11=2,25=1,30=1,70=32201,72=20,74=-5,75=-5,124=41/1,2,3;
 4//1;
 5/5=2,38=5,53=20/2;
 6/7=2,8=2,9=2,10=2,28=1/1;
 99/5=1,9=1/99;
 Leave Link    1 at Wed Jun 24 01:17:41 2026, MaxMem=  1879048192 cpu:               2.4 elap:               0.1
 (Enter /CH/g16/l101.exe)
 --------------
 phosphazene_tz
 --------------
 Symbolic Z-matrix:
 Charge =  0 Multiplicity = 1
 P                     0.42672  -0.00865   0.00002 
 N                    -1.15137   0.13176   0. 
 H                    -1.60943  -0.78442  -0.00032 
 H                     1.12485  -0.64242   1.08189 
 H                     1.0182    1.27222   0.0024 
 H                     1.12526  -0.63796  -1.08428 
 
 ITRead=  0  0  0  0  0  0
 MicOpt= -1 -1 -1 -1 -1 -1
 NAtoms=      6 NQM=        6 NQMF=       0 NMMI=      0 NMMIF=      0
                NMic=       0 NMicF=      0.
                    Isotopes and Nuclear Properties:
 (Nuclear quadrupole moments (NQMom) in fm**2, nuclear magnetic moments (NMagM)
  in nuclear magnetons)

  Atom         1           2           3           4           5           6
 IAtWgt=          31          14           1           1           1           1
 AtmWgt=  30.9737634  14.0030740   1.0078250   1.0078250   1.0078250   1.0078250
 NucSpn=           1           2           1           1           1           1
 AtZEff=  -0.0000000  -0.0000000  -0.0000000  -0.0000000  -0.0000000  -0.0000000
 NQMom=    0.0000000   2.0440000   0.0000000   0.0000000   0.0000000   0.0000000
 NMagM=    1.1316000   0.4037610   2.7928460   2.7928460   2.7928460   2.7928460
 AtZNuc=  15.0000000   7.0000000   1.0000000   1.0000000   1.0000000   1.0000000
 Leave Link  101 at Wed Jun 24 01:17:41 2026, MaxMem=  1879048192 cpu:               0.1 elap:               0.1
 (Enter /CH/g16/l202.exe)
                          Input orientation:                          
 ---------------------------------------------------------------------
 Center     Atomic      Atomic             Coordinates (Angstroms)
 Number     Number       Type             X           Y           Z
 ---------------------------------------------------------------------
      1         15           0        0.426720   -0.008650    0.000020
      2          7           0       -1.151370    0.131760    0.000000
      3          1           0       -1.609430   -0.784420   -0.000320
      4          1           0        1.124850   -0.642420    1.081890
      5          1           0        1.018200    1.272220    0.002400
      6          1           0        1.125260   -0.637960   -1.084280
 ---------------------------------------------------------------------
                    Distance matrix (angstroms):
                    1          2          3          4          5
     1  P    0.000000
     2  N    1.584324   0.000000
     3  H    2.178928   1.024307   0.000000
     4  H    1.435093   2.636478   2.944084   0.000000
     5  H    1.410845   2.451059   3.336797   2.200572   0.000000
     6  H    1.435164   2.636508   2.945327   2.166175   2.200255
                    6
     6  H    0.000000
 Stoichiometry    H4NP
 Framework group  C1[X(H4NP)]
 Deg. of freedom    12
 Full point group                 C1      NOp   1
 Largest Abelian subgroup         C1      NOp   1
 Largest concise Abelian subgroup C1      NOp   1
                         Standard orientation:                         
 ---------------------------------------------------------------------
 Center     Atomic      Atomic             Coordinates (Angstroms)
 Number     Number       Type             X           Y           Z
 ---------------------------------------------------------------------
      1         15           0       -0.426717   -0.008651   -0.000020
      2          7           0        1.151373    0.131764   -0.000000
      3          1           0        1.609436   -0.784414    0.000320
      4          1           0       -1.124844   -0.642423   -1.081890
      5          1           0       -1.018201    1.272217   -0.002400
      6          1           0       -1.125254   -0.637963    1.084280
 ---------------------------------------------------------------------
 Rotational constants (GHZ):          89.7500421          15.4138050          15.0011456
 Leave Link  202 at Wed Jun 24 01:17:41 2026, MaxMem=  1879048192 cpu:               0.0 elap:               0.0
 (Enter /CH/g16/l301.exe)
 Standard basis: def2TZVP (5D, 7F)
 Ernie: Thresh=  0.10000D-02 Tol=  0.10000D-05 Strict=F.
 There are   102 symmetry adapted cartesian basis functions of A   symmetry.
 There are    92 symmetry adapted basis functions of A   symmetry.
    92 basis functions,   152 primitive gaussians,   102 cartesian basis functions
    13 alpha electrons       13 beta electrons
       nuclear repulsion energy        64.5827627701 Hartrees.
 IExCor=  402 DFT=T Ex+Corr=B3LYP ExCW=0 ScaHFX=  0.200000
 ScaDFX=  0.800000  0.720000  1.000000  0.810000 ScalE2=  1.000000  1.000000
 IRadAn=      5 IRanWt=     -1 IRanGd=            0 ICorTp=0 IEmpDi=141
 NAtoms=    6 NActive=    6 NUniq=    6 SFac= 1.00D+00 NAtFMM=   60 NAOKFM=F Big=F
 Integral buffers will be    131072 words long.
 Raffenetti 2 integral format.
 Two-electron integral symmetry is turned on.
 R6Disp:  Grimme-D3(BJ) Dispersion energy=       -0.0056485832 Hartrees.
 Nuclear repulsion after empirical dispersion term =       64.5771141869 Hartrees.
 ------------------------------------------------------------------------------
 Polarizable Continuum Model (PCM)
 =================================
 Model                : PCM.
 Atomic radii         : SMD-Coulomb.
 Polarization charges : Total charges.
 Charge compensation  : None.
 Solution method      : On-the-fly selection.
 Cavity type          : VdW (van der Waals Surface) (Alpha=1.000).
 Cavity algorithm     : GePol (No added spheres)
                        Default sphere list used, NSphG=    6.
                        Lebedev-Laikov grids with approx.  5.0 points / Ang**2.
                        Smoothing algorithm: York/Karplus (Gamma=1.0000).
                        Polarization charges: spherical gaussians, with
                                              point-specific exponents (IZeta= 3).
                        Self-potential: point-specific (ISelfS= 7).
                        Self-field    : sphere-specific E.n sum rule (ISelfD= 2).
 Solvent              : TetraHydroFuran, Eps=   7.425700 Eps(inf)=   1.974025
 ------------------------------------------------------------------------------
 Spheres list:
 ISph  on   Nord     Re0    Alpha      Xe            Ye            Ze
    1   P      1    2.1200  1.000     -0.426717     -0.008651     -0.000020
    2   N      2    1.8900  1.000      1.151373      0.131764     -0.000000
    3   H      3    1.2000  1.000      1.609436     -0.784414      0.000320
    4   H      4    1.2000  1.000     -1.124844     -0.642423     -1.081890
    5   H      5    1.2000  1.000     -1.018201      1.272217     -0.002400
    6   H      6    1.2000  1.000     -1.125254     -0.637963      1.084280
 ------------------------------------------------------------------------------
 GePol: Number of generator spheres                  =       6
 GePol: Total number of spheres                      =       6
 GePol: Number of exposed spheres                    =       6 (100.00%)
 GePol: Number of points                             =     577
 GePol: Average weight of points                     =       0.13
 GePol: Minimum weight of points                     =   0.16D-05
 GePol: Maximum weight of points                     =    0.20615
 GePol: Number of points with low weight             =      19
 GePol: Fraction of low-weight points (<1% of avg)   =       3.29%
 GePol: Cavity surface area                          =     77.644 Ang**2
 GePol: Cavity volume                                =     58.218 Ang**3
 ------------------------------------------------------------------------------
 Atomic radii for non-electrostatic terms: SMD-CDS.
 ------------------------------------------------------------------------------
 PCM non-electrostatic energy =         0.0036500840 Hartrees.
 Nuclear repulsion after PCM non-electrostatic terms =       64.5807642709 Hartrees.
 Leave Link  301 at Wed Jun 24 01:17:41 2026, MaxMem=  1879048192 cpu:               0.0 elap:               0.0
 (Enter /CH/g16/l302.exe)
 NPDir=0 NMtPBC=     1 NCelOv=     1 NCel=       1 NClECP=     1 NCelD=      1
         NCelK=      1 NCelE2=     1 NClLst=     1 CellRange=     0.0.
 One-electron integrals computed using PRISM.
 One-electron integral symmetry used in STVInt
   1 Symmetry operations used in ECPInt.
 ECPInt:  NShTT=     820 NPrTT=    2626 LenC2=     820 LenP2D=    2358.
 LDataN:  DoStor=T MaxTD1= 6 Len=  172
 NBasis=    92 RedAO= T EigKep=  2.00D-03  NBF=    92
 NBsUse=    92 1.00D-06 EigRej= -1.00D+00 NBFU=    92
 Precomputing XC quadrature grid using
 IXCGrd= 4 IRadAn=           5 IRanWt=          -1 IRanGd=           0 AccXCQ= 0.00D+00.
 Generated NRdTot=       0 NPtTot=           0 NUsed=           0 NTot=          32
 NSgBfM=   102   102   102   102   102 MxSgAt=     6 MxSgA2=     6.
 Leave Link  302 at Wed Jun 24 01:17:41 2026, MaxMem=  1879048192 cpu:               0.4 elap:               0.1
 (Enter /CH/g16/l303.exe)
 DipDrv:  MaxL=1.
 Leave Link  303 at Wed Jun 24 01:17:41 2026, MaxMem=  1879048192 cpu:               0.0 elap:               0.0
 (Enter /CH/g16/l401.exe)
 ExpMin= 9.04D-02 ExpMax= 5.24D+04 ExpMxC= 1.79D+03 IAcc=3 IRadAn=         5 AccDes= 0.00D+00
 Harris functional with IExCor=  402 and IRadAn=       5 diagonalized for initial guess.
 HarFok:  IExCor=  402 AccDes= 0.00D+00 IRadAn=         5 IDoV= 1 UseB2=F ITyADJ=14
 ICtDFT=  3500011 ScaDFX=  1.000000  1.000000  1.000000  1.000000
 FoFCou: FMM=F IPFlag=           0 FMFlag=      100000 FMFlg1=           0
         NFxFlg=           0 DoJE=T BraDBF=F KetDBF=T FulRan=T
         wScrn=  0.000000 ICntrl=       500 IOpCl=  0 I1Cent=   200000004 NGrid=           0
         NMat0=    1 NMatS0=      1 NMatT0=    0 NMatD0=    1 NMtDS0=    0 NMtDT0=    0
 Petite list used in FoFCou.
 Harris En= -398.541843398514    
 JPrj=0 DoOrth=F DoCkMO=F.
 Leave Link  401 at Wed Jun 24 01:17:41 2026, MaxMem=  1879048192 cpu:               0.9 elap:               0.1
 (Enter /CH/g16/l502.exe)
 Keep R1 ints in memory in canonical form, NReq=16567013.
 FoFCou: FMM=F IPFlag=           0 FMFlag=           0 FMFlg1=           0
         NFxFlg=           0 DoJE=F BraDBF=F KetDBF=F FulRan=T
         wScrn=  0.000000 ICntrl=       600 IOpCl=  0 I1Cent=           0 NGrid=           0
         NMat0=    1 NMatS0=   4278 NMatT0=    0 NMatD0=    1 NMtDS0=    0 NMtDT0=    0
 Symmetry not used in FoFCou.
 Two-electron integral symmetry not used.
 Closed shell SCF:
 Using DIIS extrapolation, IDIIS=  1040.
 NGot=  1879048192 LenX=  1869872553 LenY=  1869861708
 Requested convergence on RMS density matrix=1.00D-08 within 128 cycles.
 Requested convergence on MAX density matrix=1.00D-06.
 Requested convergence on             energy=1.00D-06.
 No special actions if energy rises.

 Cycle   1  Pass 1  IDiag  1:
 Inv3:  Mode=1 IEnd=      998787.
 Iteration    1 A*A^-1 deviation from unit magnitude is 3.00D-15 for    256.
 Iteration    1 A*A^-1 deviation from orthogonality  is 2.66D-15 for    371     67.
 Iteration    1 A^-1*A deviation from unit magnitude is 2.89D-15 for    199.
 Iteration    1 A^-1*A deviation from orthogonality  is 1.01D-13 for    368    193.
 E= -398.383298869632    
 DIIS: error= 4.87D-02 at cycle   1 NSaved=   1.
 NSaved= 1 IEnMin= 1 EnMin= -398.383298869632     IErMin= 1 ErrMin= 4.87D-02
 ErrMax= 4.87D-02  0.00D+00 EMaxC= 1.00D-01 BMatC= 2.05D-01 BMatP= 2.05D-01
 IDIUse=3 WtCom= 5.13D-01 WtEn= 4.87D-01
 Coeff-Com:  0.100D+01
 Coeff-En:   0.100D+01
 Coeff:      0.100D+01
 Gap=     0.117 Goal=   None    Shift=    0.000
 GapD=    0.117 DampG=1.000 DampE=0.500 DampFc=0.5000 IDamp=-1.
 Damping current iteration by 5.00D-01
 RMSDP=1.07D-02 MaxDP=1.77D-01              OVMax= 4.19D-01

 Cycle   2  Pass 1  IDiag  1:
 E= -398.376287900671     Delta-E=        0.007010968961 Rises=F Damp=T
 DIIS: error= 2.25D-02 at cycle   2 NSaved=   2.
 NSaved= 2 IEnMin= 1 EnMin= -398.383298869632     IErMin= 2 ErrMin= 2.25D-02
 ErrMax= 2.25D-02  0.00D+00 EMaxC= 1.00D-01 BMatC= 4.12D-02 BMatP= 2.05D-01
 IDIUse=3 WtCom= 7.75D-01 WtEn= 2.25D-01
 Coeff-Com:  0.285D+00 0.715D+00
 Coeff-En:   0.515D+00 0.485D+00
 Coeff:      0.336D+00 0.664D+00
 Gap=     0.241 Goal=   None    Shift=    0.000
 RMSDP=3.51D-03 MaxDP=6.62D-02 DE= 7.01D-03 OVMax= 3.06D-01

 Cycle   3  Pass 1  IDiag  1:
 E= -398.536230835822     Delta-E=       -0.159942935151 Rises=F Damp=F
 DIIS: error= 4.35D-03 at cycle   3 NSaved=   3.
 NSaved= 3 IEnMin= 3 EnMin= -398.536230835822     IErMin= 3 ErrMin= 4.35D-03
 ErrMax= 4.35D-03  0.00D+00 EMaxC= 1.00D-01 BMatC= 1.07D-03 BMatP= 4.12D-02
 IDIUse=3 WtCom= 9.57D-01 WtEn= 4.35D-02
 Coeff-Com:  0.305D-01 0.147D+00 0.823D+00
 Coeff-En:   0.000D+00 0.000D+00 0.100D+01
 Coeff:      0.292D-01 0.140D+00 0.830D+00
 Gap=     0.249 Goal=   None    Shift=    0.000
 RMSDP=3.44D-04 MaxDP=7.94D-03 DE=-1.60D-01 OVMax= 1.48D-02

 Cycle   4  Pass 1  IDiag  1:
 E= -398.537385807304     Delta-E=       -0.001154971482 Rises=F Damp=F
 DIIS: error= 4.35D-04 at cycle   4 NSaved=   4.
 NSaved= 4 IEnMin= 4 EnMin= -398.537385807304     IErMin= 4 ErrMin= 4.35D-04
 ErrMax= 4.35D-04  0.00D+00 EMaxC= 1.00D-01 BMatC= 2.66D-05 BMatP= 1.07D-03
 IDIUse=3 WtCom= 9.96D-01 WtEn= 4.35D-03
 Coeff-Com: -0.490D-03 0.326D-03 0.120D+00 0.880D+00
 Coeff-En:   0.000D+00 0.000D+00 0.000D+00 0.100D+01
 Coeff:     -0.488D-03 0.325D-03 0.120D+00 0.881D+00
 Gap=     0.250 Goal=   None    Shift=    0.000
 RMSDP=4.44D-05 MaxDP=5.67D-04 DE=-1.15D-03 OVMax= 1.25D-03

 Cycle   5  Pass 1  IDiag  1:
 E= -398.537401779995     Delta-E=       -0.000015972692 Rises=F Damp=F
 DIIS: error= 9.32D-05 at cycle   5 NSaved=   5.
 NSaved= 5 IEnMin= 5 EnMin= -398.537401779995     IErMin= 5 ErrMin= 9.32D-05
 ErrMax= 9.32D-05  0.00D+00 EMaxC= 1.00D-01 BMatC= 8.95D-07 BMatP= 2.66D-05
 IDIUse=1 WtCom= 1.00D+00 WtEn= 0.00D+00
 Coeff-Com:  0.832D-03-0.231D-02 0.802D-02 0.100D+00 0.893D+00
 Coeff:      0.832D-03-0.231D-02 0.802D-02 0.100D+00 0.893D+00
 Gap=     0.250 Goal=   None    Shift=    0.000
 RMSDP=1.08D-05 MaxDP=1.38D-04 DE=-1.60D-05 OVMax= 4.30D-04

 Cycle   6  Pass 1  IDiag  1:
 E= -398.537402636285     Delta-E=       -0.000000856290 Rises=F Damp=F
 DIIS: error= 1.15D-05 at cycle   6 NSaved=   6.
 NSaved= 6 IEnMin= 6 EnMin= -398.537402636285     IErMin= 6 ErrMin= 1.15D-05
 ErrMax= 1.15D-05  0.00D+00 EMaxC= 1.00D-01 BMatC= 7.93D-09 BMatP= 8.95D-07
 IDIUse=1 WtCom= 1.00D+00 WtEn= 0.00D+00
 Coeff-Com:  0.119D-03-0.379D-03-0.465D-03 0.103D-02 0.944D-01 0.905D+00
 Coeff:      0.119D-03-0.379D-03-0.465D-03 0.103D-02 0.944D-01 0.905D+00
 Gap=     0.250 Goal=   None    Shift=    0.000
 RMSDP=1.27D-06 MaxDP=2.19D-05 DE=-8.56D-07 OVMax= 4.40D-05

 Cycle   7  Pass 1  IDiag  1:
 E= -398.537402642920     Delta-E=       -0.000000006634 Rises=F Damp=F
 DIIS: error= 4.28D-06 at cycle   7 NSaved=   7.
 NSaved= 7 IEnMin= 7 EnMin= -398.537402642920     IErMin= 7 ErrMin= 4.28D-06
 ErrMax= 4.28D-06  0.00D+00 EMaxC= 1.00D-01 BMatC= 1.06D-09 BMatP= 7.93D-09
 IDIUse=1 WtCom= 1.00D+00 WtEn= 0.00D+00
 Coeff-Com:  0.116D-04-0.590D-04-0.187D-03-0.398D-03 0.709D-02 0.288D+00
 Coeff-Com:  0.706D+00
 Coeff:      0.116D-04-0.590D-04-0.187D-03-0.398D-03 0.709D-02 0.288D+00
 Coeff:      0.706D+00
 Gap=     0.250 Goal=   None    Shift=    0.000
 RMSDP=3.49D-07 MaxDP=1.51D-05 DE=-6.63D-09 OVMax= 1.09D-05

 Cycle   8  Pass 1  IDiag  1:
 E= -398.537402643944     Delta-E=       -0.000000001024 Rises=F Damp=F
 DIIS: error= 7.12D-07 at cycle   8 NSaved=   8.
 NSaved= 8 IEnMin= 8 EnMin= -398.537402643944     IErMin= 8 ErrMin= 7.12D-07
 ErrMax= 7.12D-07  0.00D+00 EMaxC= 1.00D-01 BMatC= 8.03D-11 BMatP= 1.06D-09
 IDIUse=1 WtCom= 1.00D+00 WtEn= 0.00D+00
 Coeff-Com: -0.472D-05-0.340D-05-0.687D-04-0.560D-03-0.930D-03 0.596D-01
 Coeff-Com:  0.257D+00 0.685D+00
 Coeff:     -0.472D-05-0.340D-05-0.687D-04-0.560D-03-0.930D-03 0.596D-01
 Coeff:      0.257D+00 0.685D+00
 Gap=     0.250 Goal=   None    Shift=    0.000
 RMSDP=1.10D-07 MaxDP=4.83D-06 DE=-1.02D-09 OVMax= 2.87D-06

 Cycle   9  Pass 1  IDiag  1:
 E= -398.537402644023     Delta-E=       -0.000000000079 Rises=F Damp=F
 DIIS: error= 2.13D-07 at cycle   9 NSaved=   9.
 NSaved= 9 IEnMin= 9 EnMin= -398.537402644023     IErMin= 9 ErrMin= 2.13D-07
 ErrMax= 2.13D-07  0.00D+00 EMaxC= 1.00D-01 BMatC= 3.83D-12 BMatP= 8.03D-11
 IDIUse=1 WtCom= 1.00D+00 WtEn= 0.00D+00
 Coeff-Com: -0.340D-05 0.492D-05-0.114D-04-0.677D-04-0.773D-03-0.684D-02
 Coeff-Com:  0.160D-01 0.172D+00 0.820D+00
 Coeff:     -0.340D-05 0.492D-05-0.114D-04-0.677D-04-0.773D-03-0.684D-02
 Coeff:      0.160D-01 0.172D+00 0.820D+00
 Gap=     0.250 Goal=   None    Shift=    0.000
 RMSDP=1.74D-08 MaxDP=4.05D-07 DE=-7.92D-11 OVMax= 5.95D-07

 Cycle  10  Pass 1  IDiag  1:
 E= -398.537402644025     Delta-E=       -0.000000000003 Rises=F Damp=F
 DIIS: error= 4.27D-08 at cycle  10 NSaved=  10.
 NSaved=10 IEnMin=10 EnMin= -398.537402644025     IErMin=10 ErrMin= 4.27D-08
 ErrMax= 4.27D-08  0.00D+00 EMaxC= 1.00D-01 BMatC= 1.34D-13 BMatP= 3.83D-12
 IDIUse=1 WtCom= 1.00D+00 WtEn= 0.00D+00
 Coeff-Com: -0.604D-06 0.119D-05-0.370D-05 0.240D-05-0.589D-04-0.260D-02
 Coeff-Com: -0.635D-02 0.663D-02 0.110D+00 0.892D+00
 Coeff:     -0.604D-06 0.119D-05-0.370D-05 0.240D-05-0.589D-04-0.260D-02
 Coeff:     -0.635D-02 0.663D-02 0.110D+00 0.892D+00
 Gap=     0.250 Goal=   None    Shift=    0.000
 RMSDP=3.41D-09 MaxDP=6.48D-08 DE=-2.50D-12 OVMax= 1.35D-07

 Error on total polarization charges =  0.02780
 SCF Done:  E(RB3LYP) =  -398.537402644     A.U. after   10 cycles
            NFock= 10  Conv=0.34D-08     -V/T= 2.0028
 KE= 3.974348016866D+02 PE=-1.074292947104D+03 EE= 2.137399785025D+02
 SMD-CDS (non-electrostatic) energy       (kcal/mol) =       2.29
 (included in total energy above)
 Leave Link  502 at Wed Jun 24 01:17:43 2026, MaxMem=  1879048192 cpu:              10.4 elap:               1.5
 (Enter /CH/g16/l601.exe)
 Copying SCF densities to generalized density rwf, IOpCl= 0 IROHF=0.

 **********************************************************************

            Population analysis using the SCF Density.

 **********************************************************************

 Orbital symmetries:
       Occupied  (A) (A) (A) (A) (A) (A) (A) (A) (A) (A) (A) (A)
                 (A)
       Virtual   (A) (A) (A) (A) (A) (A) (A) (A) (A) (A) (A) (A)
                 (A) (A) (A) (A) (A) (A) (A) (A) (A) (A) (A) (A)
                 (A) (A) (A) (A) (A) (A) (A) (A) (A) (A) (A) (A)
                 (A) (A) (A) (A) (A) (A) (A) (A) (A) (A) (A) (A)
                 (A) (A) (A) (A) (A) (A) (A) (A) (A) (A) (A) (A)
                 (A) (A) (A) (A) (A) (A) (A) (A) (A) (A) (A) (A)
                 (A) (A) (A) (A) (A) (A) (A)
 The electronic state is 1-A.
 Alpha  occ. eigenvalues --  -77.11206 -14.26107  -6.59224  -4.75388  -4.75328
 Alpha  occ. eigenvalues --   -4.75151  -0.83224  -0.62698  -0.45319  -0.41111
 Alpha  occ. eigenvalues --   -0.39987  -0.28124  -0.23767
 Alpha virt. eigenvalues --    0.01223   0.03164   0.05295   0.06660   0.10386
 Alpha virt. eigenvalues --    0.18084   0.18291   0.24667   0.28721   0.29012
 Alpha virt. eigenvalues --    0.31265   0.31293   0.32925   0.38578   0.44096
 Alpha virt. eigenvalues --    0.44295   0.48992   0.51652   0.57328   0.59970
 Alpha virt. eigenvalues --    0.63676   0.74046   0.99637   1.07159   1.09064
 Alpha virt. eigenvalues --    1.10415   1.10690   1.20454   1.23144   1.24927
 Alpha virt. eigenvalues --    1.26333   1.29643   1.35322   1.39483   1.40340
 Alpha virt. eigenvalues --    1.46324   1.62288   1.63245   1.65997   1.67896
 Alpha virt. eigenvalues --    1.69832   1.85953   1.87679   1.91764   1.94552
 Alpha virt. eigenvalues --    1.97779   1.99777   2.04278   2.09857   2.11409
 Alpha virt. eigenvalues --    2.12483   2.31572   2.39713   2.40482   2.54911
 Alpha virt. eigenvalues --    2.58051   2.60588   2.64516   2.75961   2.78906
 Alpha virt. eigenvalues --    2.96756   3.29714   4.03468   4.06221   4.22942
 Alpha virt. eigenvalues --    4.30717   4.37982   4.47450   4.63113   4.75523
 Alpha virt. eigenvalues --    4.90611   4.95859   5.12605   5.50162   7.26389
 Alpha virt. eigenvalues --    7.28740   7.68960  15.27382  31.61231
          Condensed to atoms (all electrons):
               1          2          3          4          5          6
     1  P   13.059192   0.570455  -0.028748   0.343059   0.386878   0.343026
     2  N    0.570455   6.957023   0.319682  -0.038902  -0.033510  -0.038943
     3  H   -0.028748   0.319682   0.476549  -0.003901   0.005608  -0.003879
     4  H    0.343059  -0.038902  -0.003901   0.734505  -0.029706  -0.049044
     5  H    0.386878  -0.033510   0.005608  -0.029706   0.613452  -0.029814
     6  H    0.343026  -0.038943  -0.003879  -0.049044  -0.029814   0.734759
 Mulliken charges:
               1
     1  P    0.326138
     2  N   -0.735804
     3  H    0.234690
     4  H    0.043989
     5  H    0.087093
     6  H    0.043894
 Sum of Mulliken charges =  -0.00000
 Mulliken charges with hydrogens summed into heavy atoms:
               1
     1  P    0.501114
     2  N   -0.501114
 Electronic spatial extent (au):  <R**2>=            132.0755
 Charge=             -0.0000 electrons
 Dipole moment (field-independent basis, Debye):
    X=             -3.6828    Y=             -1.7308    Z=             -0.0004  Tot=              4.0693
 Quadrupole moment (field-independent basis, Debye-Ang):
   XX=            -22.7397   YY=            -19.5527   ZZ=            -21.5573
   XY=             -3.4696   XZ=              0.0025   YZ=             -0.0008
 Traceless Quadrupole moment (field-independent basis, Debye-Ang):
   XX=             -1.4565   YY=              1.7305   ZZ=             -0.2741
   XY=             -3.4696   XZ=              0.0025   YZ=             -0.0008
 Octapole moment (field-independent basis, Debye-Ang**2):
  XXX=             -5.5616  YYY=             -1.5124  ZZZ=             -0.0012  XYY=             -0.9026
  XXY=             -5.0433  XXZ=             -0.0005  XZZ=             -2.4971  YZZ=             -0.6570
  YYZ=             -0.0022  XYZ=             -0.0008
 Hexadecapole moment (field-independent basis, Debye-Ang**3):
 XXXX=           -117.5873 YYYY=            -37.6178 ZZZZ=            -38.9180 XXXY=            -10.9235
 XXXZ=              0.0073 YYYX=             -5.5326 YYYZ=             -0.0032 ZZZX=              0.0027
 ZZZY=              0.0001 XXYY=            -24.4177 XXZZ=            -27.7806 YYZZ=            -13.1248
 XXYZ=             -0.0016 YYXZ=              0.0050 ZZXY=             -0.8662
 N-N= 6.458076427092D+01 E-N=-1.074292945402D+03  KE= 3.974348016866D+02
 No NMR shielding tensors so no spin-rotation constants.
 Leave Link  601 at Wed Jun 24 01:17:43 2026, MaxMem=  1879048192 cpu:               0.3 elap:               0.1
 (Enter /CH/g16/l9999.exe)
 Unable to Open any file for archive entry.
 1\1\GINC-NODE0-CHCLUSTER\SP\RB3LYP\def2TZVP\H4N1P1\LS\24-Jun-2026\0\\#
 p B3LYP/def2TZVP EmpiricalDispersion=GD3BJ SCRF=(SMD,Solvent=Tetrahydr
 ofuran) int=ultrafine\\phosphazene_tz\\0,1\P,0,0.42672,-0.00865,0.0000
 2\N,0,-1.15137,0.13176,0.\H,0,-1.60943,-0.78442,-0.00032\H,0,1.12485,-
 0.64242,1.08189\H,0,1.0182,1.27222,0.0024\H,0,1.12526,-0.63796,-1.0842
 8\\Version=ES64L-G16RevC.02\State=1-A\HF=-398.5374026\RMSD=3.413e-09\D
 ipole=1.4489316,-0.6809508,0.0001446\Quadrupole=-1.0828603,1.2866224,-
 0.2037621,2.5795361,0.0018589,0.0006309\PG=C01 [X(H4N1P1)]\\@
 The archive entry for this job was punched.


 HE WHO LAUGHS LAST PROBABLY DIDN'T GET THE JOKE.
 Job cpu time:       0 days  0 hours  0 minutes 14.9 seconds.
 Elapsed time:       0 days  0 hours  0 minutes  2.1 seconds.
 File lengths (MBytes):  RWF=     12 Int=      0 D2E=      0 Chk=      2 Scr=      1
 Normal termination of Gaussian 16 at Wed Jun 24 01:17:43 2026.
