 Entering Gaussian System, Link 0=/CH/g16/g16
 Initial command:
 /CH/g16/l1.exe "/tmp/g16cpx_phosphazene_2907238/Gau-2907252.inp" -scrdir="/tmp/g16cpx_phosphazene_2907238/"
 Default is to use a total of  96 processors:
                               96 via shared-memory
                                1 via Linda
 Entering Link 1 = /CH/g16/l1.exe PID=   2907256.
  
 Copyright (c) 1988-2021, Gaussian, Inc.  All Rights Reserved.
  
 This is part of the Gaussian(R) 16 program.  It is based on
 the Gaussian(R) 09 system (copyright 2009, Gaussian, Inc.),
 the Gaussian(R) 03 system (copyright 2003, Gaussian, Inc.),
 the Gaussian(R) 98 system (copyright 1998, Gaussian, Inc.),
 the Gaussian(R) 94 system (copyright 1995, Gaussian, Inc.),
 the Gaussian 92(TM) system (copyright 1992, Gaussian, Inc.),
 the Gaussian 90(TM) system (copyright 1990, Gaussian, Inc.),
 the Gaussian 88(TM) system (copyright 1988, Gaussian, Inc.),
 the Gaussian 86(TM) system (copyright 1986, Carnegie Mellon
 University), and the Gaussian 82(TM) system (copyright 1983,
 Carnegie Mellon University). Gaussian is a federally registered
 trademark of Gaussian, Inc.
  
 This software contains proprietary and confidential information,
 including trade secrets, belonging to Gaussian, Inc.
  
 This software is provided under written license and may be
 used, copied, transmitted, or stored only in accord with that
 written license.
  
 The following legend is applicable only to US Government
 contracts under FAR:
  
                    RESTRICTED RIGHTS LEGEND
  
 Use, reproduction and disclosure by the US Government is
 subject to restrictions as set forth in subparagraphs (a)
 and (c) of the Commercial Computer Software - Restricted
 Rights clause in FAR 52.227-19.
  
 Gaussian, Inc.
 340 Quinnipiac St., Bldg. 40, Wallingford CT 06492
  
  
 ---------------------------------------------------------------
 Warning -- This program may not be used in any manner that
 competes with the business of Gaussian, Inc. or will provide
 assistance to any competitor of Gaussian, Inc.  The licensee
 of this program is prohibited from giving any competitor of
 Gaussian, Inc. access to this program.  By using this program,
 the user acknowledges that Gaussian, Inc. is engaged in the
 business of creating and licensing software in the field of
 computational chemistry and represents and warrants to the
 licensee that it is not a competitor of Gaussian, Inc. and that
 it will not use this program in any manner prohibited above.
 ---------------------------------------------------------------
  

 Cite this work as:
 Gaussian 16, Revision C.02,
 M. J. Frisch, G. W. Trucks, H. B. Schlegel, G. E. Scuseria, 
 M. A. Robb, J. R. Cheeseman, G. Scalmani, V. Barone, 
 G. A. Petersson, H. Nakatsuji, X. Li, M. Caricato, A. V. Marenich, 
 J. Bloino, B. G. Janesko, R. Gomperts, B. Mennucci, H. P. Hratchian, 
 J. V. Ortiz, A. F. Izmaylov, J. L. Sonnenberg, D. Williams-Young, 
 F. Ding, F. Lipparini, F. Egidi, J. Goings, B. Peng, A. Petrone, 
 T. Henderson, D. Ranasinghe, V. G. Zakrzewski, J. Gao, N. Rega, 
 G. Zheng, W. Liang, M. Hada, M. Ehara, K. Toyota, R. Fukuda, 
 J. Hasegawa, M. Ishida, T. Nakajima, Y. Honda, O. Kitao, H. Nakai, 
 T. Vreven, K. Throssell, J. A. Montgomery, Jr., J. E. Peralta, 
 F. Ogliaro, M. J. Bearpark, J. J. Heyd, E. N. Brothers, K. N. Kudin, 
 V. N. Staroverov, T. A. Keith, R. Kobayashi, J. Normand, 
 K. Raghavachari, A. P. Rendell, J. C. Burant, S. S. Iyengar, 
 J. Tomasi, M. Cossi, J. M. Millam, M. Klene, C. Adamo, R. Cammi, 
 J. W. Ochterski, R. L. Martin, K. Morokuma, O. Farkas, 
 J. B. Foresman, and D. J. Fox, Gaussian, Inc., Wallingford CT, 2019.
 
 ******************************************
 Gaussian 16:  ES64L-G16RevC.02  7-Dec-2021
                24-Jun-2026 
 ******************************************
 %chk=phosphazene_cpx.chk
 %nprocshared=8
 Will use up to    8 processors via shared memory.
 %mem=14GB
 ----------------------------------------------------------------------
 #p B3LYP/def2SVP EmpiricalDispersion=GD3BJ opt SCRF=(SMD,Solvent=Tetra
 hydrofuran) int=ultrafine
 ----------------------------------------------------------------------
 1/18=20,19=15,26=6,38=1/1,3;
 2/9=110,12=2,17=6,18=5,40=1/2;
 3/5=43,7=101,11=2,25=1,30=1,70=32201,71=1,72=20,74=-5,75=-5,124=41/1,2,3;
 4//1;
 5/5=2,38=5,53=20/2;
 6/7=2,8=2,9=2,10=2,28=1/1;
 7//1,2,3,16;
 1/18=20,19=15,26=6/3(2);
 2/9=110/2;
 99//99;
 2/9=110/2;
 3/5=43,7=101,11=2,25=1,30=1,70=32205,71=1,72=20,74=-5,75=-5,124=41/1,2,3;
 4/5=5,16=3,69=1/1;
 5/5=2,38=5,53=20/2;
 7//1,2,3,16;
 1/18=20,19=15,26=6/3(-5);
 2/9=110/2;
 6/7=2,8=2,9=2,10=2,19=2,28=1/1;
 99/9=1/99;
 Leave Link    1 at Wed Jun 24 01:03:22 2026, MaxMem=  1879048192 cpu:               5.5 elap:               0.2
 (Enter /CH/g16/l101.exe)
 --------------------
 phosphazene+AlCl4(-)
 --------------------
 Symbolic Z-matrix:
 Charge = -1 Multiplicity = 1
 P                     0.42672  -0.00865   0.00002 
 N                    -1.15137   0.13176   0. 
 H                    -1.60943  -0.78442  -0.00032 
 H                     1.12485  -0.64242   1.08189 
 H                     1.0182    1.27222   0.0024 
 H                     1.12526  -0.63796  -1.08428 
 Al                   -5.77692  -1.83029  -0.00015 
 Cl                   -3.69909  -1.22016  -0.00009 
 Cl                   -6.37686  -2.34945   2.01484 
 Cl                   -6.0242   -3.55013  -1.29268 
 Cl                   -7.00753  -0.20143  -0.72266 
 
 Add virtual bond connecting atoms Cl8        and H3         Dist= 4.03D+00.
 ITRead=  0  0  0  0  0  0  0  0  0  0  0
 MicOpt= -1 -1 -1 -1 -1 -1 -1 -1 -1 -1 -1
 NAtoms=     11 NQM=       11 NQMF=       0 NMMI=      0 NMMIF=      0
                NMic=       0 NMicF=      0.
                    Isotopes and Nuclear Properties:
 (Nuclear quadrupole moments (NQMom) in fm**2, nuclear magnetic moments (NMagM)
  in nuclear magnetons)

  Atom         1           2           3           4           5           6           7           8           9          10
 IAtWgt=          31          14           1           1           1           1          27          35          35          35
 AtmWgt=  30.9737634  14.0030740   1.0078250   1.0078250   1.0078250   1.0078250  26.9815413  34.9688527  34.9688527  34.9688527
 NucSpn=           1           2           1           1           1           1           5           3           3           3
 AtZEff=  -0.0000000  -0.0000000  -0.0000000  -0.0000000  -0.0000000  -0.0000000  -0.0000000  -0.0000000  -0.0000000  -0.0000000
 NQMom=    0.0000000   2.0440000   0.0000000   0.0000000   0.0000000   0.0000000  14.6600000  -8.1650000  -8.1650000  -8.1650000
 NMagM=    1.1316000   0.4037610   2.7928460   2.7928460   2.7928460   2.7928460   3.6415040   0.8218740   0.8218740   0.8218740
 AtZNuc=  15.0000000   7.0000000   1.0000000   1.0000000   1.0000000   1.0000000  13.0000000  17.0000000  17.0000000  17.0000000

  Atom        11
 IAtWgt=          35
 AtmWgt=  34.9688527
 NucSpn=           3
 AtZEff=  -0.0000000
 NQMom=   -8.1650000
 NMagM=    0.8218740
 AtZNuc=  17.0000000
 Leave Link  101 at Wed Jun 24 01:03:22 2026, MaxMem=  1879048192 cpu:               0.4 elap:               0.4
 (Enter /CH/g16/l103.exe)

 GradGradGradGradGradGradGradGradGradGradGradGradGradGradGradGradGradGrad
 Berny optimization.
 Initialization pass.
                           ----------------------------
                           !    Initial Parameters    !
                           ! (Angstroms and Degrees)  !
 --------------------------                            --------------------------
 ! Name  Definition              Value          Derivative Info.                !
 --------------------------------------------------------------------------------
 ! R1    R(1,2)                  1.5843         estimate D2E/DX2                !
 ! R2    R(1,4)                  1.4351         estimate D2E/DX2                !
 ! R3    R(1,5)                  1.4108         estimate D2E/DX2                !
 ! R4    R(1,6)                  1.4352         estimate D2E/DX2                !
 ! R5    R(2,3)                  1.0243         estimate D2E/DX2                !
 ! R6    R(3,8)                  2.1346         estimate D2E/DX2                !
 ! R7    R(7,8)                  2.1656         estimate D2E/DX2                !
 ! R8    R(7,9)                  2.1656         estimate D2E/DX2                !
 ! R9    R(7,10)                 2.1656         estimate D2E/DX2                !
 ! R10   R(7,11)                 2.1655         estimate D2E/DX2                !
 ! A1    A(2,1,4)              121.581          estimate D2E/DX2                !
 ! A2    A(2,1,5)              109.702          estimate D2E/DX2                !
 ! A3    A(2,1,6)              121.5786         estimate D2E/DX2                !
 ! A4    A(4,1,5)              101.2868         estimate D2E/DX2                !
 ! A5    A(4,1,6)               97.9978         estimate D2E/DX2                !
 ! A6    A(5,1,6)              101.2631         estimate D2E/DX2                !
 ! A7    A(1,2,3)              111.4791         estimate D2E/DX2                !
 ! A8    A(2,3,8)              128.3422         estimate D2E/DX2                !
 ! A9    A(8,7,9)              109.4712         estimate D2E/DX2                !
 ! A10   A(8,7,10)             109.4712         estimate D2E/DX2                !
 ! A11   A(8,7,11)             109.4715         estimate D2E/DX2                !
 ! A12   A(9,7,10)             109.4712         estimate D2E/DX2                !
 ! A13   A(9,7,11)             109.4711         estimate D2E/DX2                !
 ! A14   A(10,7,11)            109.4712         estimate D2E/DX2                !
 ! A15   L(3,8,7,9,-1)         179.0217         estimate D2E/DX2                !
 ! A16   L(3,8,7,9,-2)         187.6718         estimate D2E/DX2                !
 ! D1    D(4,1,2,3)            -62.2602         estimate D2E/DX2                !
 ! D2    D(5,1,2,3)           -179.9165         estimate D2E/DX2                !
 ! D3    D(6,1,2,3)             62.4615         estimate D2E/DX2                !
 ! D4    D(1,2,3,8)            179.9842         estimate D2E/DX2                !
 ! D5    D(2,3,7,9)           -100.0357         estimate D2E/DX2                !
 ! D6    D(2,3,7,10)           141.2309         estimate D2E/DX2                !
 ! D7    D(2,3,7,11)            21.0548         estimate D2E/DX2                !
 --------------------------------------------------------------------------------
 Trust Radius=3.00D-01 FncErr=5.00D-06 GrdErr=5.00D-06 EigMax=2.50D+02 EigMin=1.00D-04
 Number of steps in this run=     43 maximum allowed number of steps=    100.
 GradGradGradGradGradGradGradGradGradGradGradGradGradGradGradGradGradGrad

 Leave Link  103 at Wed Jun 24 01:03:22 2026, MaxMem=  1879048192 cpu:               0.0 elap:               0.0
 (Enter /CH/g16/l202.exe)
                          Input orientation:                          
 ---------------------------------------------------------------------
 Center     Atomic      Atomic             Coordinates (Angstroms)
 Number     Number       Type             X           Y           Z
 ---------------------------------------------------------------------
      1         15           0        0.426720   -0.008650    0.000020
      2          7           0       -1.151370    0.131760    0.000000
      3          1           0       -1.609430   -0.784420   -0.000320
      4          1           0        1.124850   -0.642420    1.081890
      5          1           0        1.018200    1.272220    0.002400
      6          1           0        1.125260   -0.637960   -1.084280
      7         13           0       -5.776920   -1.830290   -0.000150
      8         17           0       -3.699090   -1.220160   -0.000090
      9         17           0       -6.376860   -2.349450    2.014840
     10         17           0       -6.024200   -3.550130   -1.292680
     11         17           0       -7.007530   -0.201430   -0.722660
 ---------------------------------------------------------------------
                    Distance matrix (angstroms):
                    1          2          3          4          5
     1  P    0.000000
     2  N    1.584324   0.000000
     3  H    2.178928   1.024307   0.000000
     4  H    1.435093   2.636478   2.944084   0.000000
     5  H    1.410845   2.451059   3.336797   2.200572   0.000000
     6  H    1.435164   2.636508   2.945327   2.166175   2.200255
     7  Al   6.465564   5.024475   4.296722   7.086344   7.469888
     8  Cl   4.300008   2.884192   2.134607   4.977435   5.335240
     9  Cl   7.471783   6.125498   5.407271   7.749839   8.476634
    10  Cl   7.471782   6.242740   5.367452   8.074793   8.632942
    11  Cl   7.471780   5.909980   5.477329   8.341851   8.192051
                    6          7          8          9         10
     6  H    0.000000
     7  Al   7.087812   0.000000
     8  Cl   4.978833   2.165557   0.000000
     9  Cl   8.295514   2.165558   3.536339   0.000000
    10  Cl   7.722625   2.165556   3.536338   3.536339   0.000000
    11  Cl   8.152521   2.165550   3.536339   3.536332   3.536333
                   11
    11  Cl   0.000000
 Stoichiometry    AlCl4H4NP(1-)
 Framework group  C1[X(AlCl4H4NP)]
 Deg. of freedom    27
 Full point group                 C1      NOp   1
 Largest Abelian subgroup         C1      NOp   1
 Largest concise Abelian subgroup C1      NOp   1
                         Standard orientation:                         
 ---------------------------------------------------------------------
 Center     Atomic      Atomic             Coordinates (Angstroms)
 Number     Number       Type             X           Y           Z
 ---------------------------------------------------------------------
      1         15           0        4.992322   -0.107810    0.000132
      2          7           0        3.526780    0.494079    0.000112
      3          1           0        2.817727   -0.245142   -0.000208
      4          1           0        5.471208   -0.920041    1.082002
      5          1           0        5.936904    0.940160    0.002512
      6          1           0        5.472922   -0.915903   -1.084168
      7         13           0       -1.472482   -0.008646   -0.000038
      8         17           0        0.692820   -0.041864    0.000022
      9         17           0       -2.199351   -0.326633    2.014952
     10         17           0       -2.218456   -1.577887   -1.292568
     11         17           0       -2.164943    1.911793   -0.722548
 ---------------------------------------------------------------------
 Rotational constants (GHZ):           1.1328999           0.2732836           0.2726856
 Leave Link  202 at Wed Jun 24 01:03:22 2026, MaxMem=  1879048192 cpu:               0.0 elap:               0.0
 (Enter /CH/g16/l301.exe)
 Standard basis: def2SVP (5D, 7F)
 Ernie: Thresh=  0.10000D-02 Tol=  0.10000D-05 Strict=F.
 There are   149 symmetry adapted cartesian basis functions of A   symmetry.
 There are   142 symmetry adapted basis functions of A   symmetry.
   142 basis functions,   275 primitive gaussians,   149 cartesian basis functions
    54 alpha electrons       54 beta electrons
       nuclear repulsion energy       732.9029534784 Hartrees.
 IExCor=  402 DFT=T Ex+Corr=B3LYP ExCW=0 ScaHFX=  0.200000
 ScaDFX=  0.800000  0.720000  1.000000  0.810000 ScalE2=  1.000000  1.000000
 IRadAn=      5 IRanWt=     -1 IRanGd=            0 ICorTp=0 IEmpDi=141
 NAtoms=   11 NActive=   11 NUniq=   11 SFac= 1.00D+00 NAtFMM=   60 NAOKFM=F Big=F
 Integral buffers will be    131072 words long.
 Raffenetti 2 integral format.
 Two-electron integral symmetry is turned on.
 R6Disp:  Grimme-D3(BJ) Dispersion energy=       -0.0232889172 Hartrees.
 Nuclear repulsion after empirical dispersion term =      732.8796645612 Hartrees.
 ------------------------------------------------------------------------------
 Polarizable Continuum Model (PCM)
 =================================
 Model                : PCM.
 Atomic radii         : SMD-Coulomb.
 Polarization charges : Total charges.
 Charge compensation  : None.
 Solution method      : On-the-fly selection.
 Cavity type          : VdW (van der Waals Surface) (Alpha=1.000).
 Cavity algorithm     : GePol (No added spheres)
                        Default sphere list used, NSphG=   11.
                        Lebedev-Laikov grids with approx.  5.0 points / Ang**2.
                        Smoothing algorithm: York/Karplus (Gamma=1.0000).
                        Polarization charges: spherical gaussians, with
                                              point-specific exponents (IZeta= 3).
                        Self-potential: point-specific (ISelfS= 7).
                        Self-field    : sphere-specific E.n sum rule (ISelfD= 2).
 1st derivatives      : Analytical E(r).r(x)/FMM algorithm (CHGder, D1EAlg=3).
                        Cavity 1st derivative terms included.
 Solvent              : TetraHydroFuran, Eps=   7.425700 Eps(inf)=   1.974025
 ------------------------------------------------------------------------------
 Spheres list:
 ISph  on   Nord     Re0    Alpha      Xe            Ye            Ze
    1   P      1    2.1200  1.000      4.992322     -0.107810      0.000132
    2   N      2    1.8900  1.000      3.526780      0.494079      0.000112
    3   H      3    1.2000  1.000      2.817727     -0.245142     -0.000208
    4   H      4    1.2000  1.000      5.471208     -0.920041      1.082002
    5   H      5    1.2000  1.000      5.936904      0.940160      0.002512
    6   H      6    1.2000  1.000      5.472922     -0.915903     -1.084168
    7  Al      7    2.3000  1.000     -1.472482     -0.008646     -0.000038
    8  Cl      8    2.3800  1.000      0.692820     -0.041864      0.000022
    9  Cl      9    2.3800  1.000     -2.199351     -0.326633      2.014952
   10  Cl     10    2.3800  1.000     -2.218456     -1.577887     -1.292568
   11  Cl     11    2.3800  1.000     -2.164943      1.911793     -0.722548
 ------------------------------------------------------------------------------
 GePol: Number of generator spheres                  =      11
 GePol: Total number of spheres                      =      11
 GePol: Number of exposed spheres                    =      11 (100.00%)
 GePol: Number of points                             =    1698
 GePol: Average weight of points                     =       0.15
 GePol: Minimum weight of points                     =   0.38D-06
 GePol: Maximum weight of points                     =    0.20615
 GePol: Number of points with low weight             =      23
 GePol: Fraction of low-weight points (<1% of avg)   =       1.35%
 GePol: Cavity surface area                          =    251.828 Ang**2
 GePol: Cavity volume                                =    250.017 Ang**3
 ------------------------------------------------------------------------------
 Atomic radii for non-electrostatic terms: SMD-CDS.
 ------------------------------------------------------------------------------
 PCM non-electrostatic energy =        -0.0005234399 Hartrees.
 Nuclear repulsion after PCM non-electrostatic terms =      732.8791411213 Hartrees.
 Leave Link  301 at Wed Jun 24 01:03:22 2026, MaxMem=  1879048192 cpu:               0.0 elap:               0.0
 (Enter /CH/g16/l302.exe)
 NPDir=0 NMtPBC=     1 NCelOv=     1 NCel=       1 NClECP=     1 NCelD=      1
         NCelK=      1 NCelE2=     1 NClLst=     1 CellRange=     0.0.
 One-electron integrals computed using PRISM.
 One-electron integral symmetry used in STVInt
   1 Symmetry operations used in ECPInt.
 ECPInt:  NShTT=    2211 NPrTT=   10033 LenC2=    1898 LenP2D=    5796.
 LDataN:  DoStor=T MaxTD1= 4 Len=   56
 NBasis=   142 RedAO= T EigKep=  1.26D-02  NBF=   142
 NBsUse=   142 1.00D-06 EigRej= -1.00D+00 NBFU=   142
 Precomputing XC quadrature grid using
 IXCGrd= 4 IRadAn=           5 IRanWt=          -1 IRanGd=           0 AccXCQ= 0.00D+00.
 Generated NRdTot=       0 NPtTot=           0 NUsed=           0 NTot=          32
 NSgBfM=   144   144   144   144   144 MxSgAt=    11 MxSgA2=    11.
 Leave Link  302 at Wed Jun 24 01:03:23 2026, MaxMem=  1879048192 cpu:               0.4 elap:               0.1
 (Enter /CH/g16/l303.exe)
 DipDrv:  MaxL=1.
 Leave Link  303 at Wed Jun 24 01:03:23 2026, MaxMem=  1879048192 cpu:               0.0 elap:               0.0
 (Enter /CH/g16/l401.exe)
 ExpMin= 5.44D-02 ExpMax= 1.04D+04 ExpMxC= 1.57D+03 IAcc=3 IRadAn=         5 AccDes= 0.00D+00
 Harris functional with IExCor=  402 and IRadAn=       5 diagonalized for initial guess.
 HarFok:  IExCor=  402 AccDes= 0.00D+00 IRadAn=         5 IDoV= 1 UseB2=F ITyADJ=14
 ICtDFT=  3500011 ScaDFX=  1.000000  1.000000  1.000000  1.000000
 FoFCou: FMM=F IPFlag=           0 FMFlag=      100000 FMFlg1=           0
         NFxFlg=           0 DoJE=T BraDBF=F KetDBF=T FulRan=T
         wScrn=  0.000000 ICntrl=       500 IOpCl=  0 I1Cent=   200000004 NGrid=           0
         NMat0=    1 NMatS0=      1 NMatT0=    0 NMatD0=    1 NMtDS0=    0 NMtDT0=    0
 Petite list used in FoFCou.
 Harris En= -2481.11746293452    
 JPrj=0 DoOrth=F DoCkMO=F.
 Leave Link  401 at Wed Jun 24 01:03:23 2026, MaxMem=  1879048192 cpu:               1.2 elap:               0.2
 (Enter /CH/g16/l502.exe)
 Keep R1 ints in memory in canonical form, NReq=59360619.
 FoFCou: FMM=F IPFlag=           0 FMFlag=           0 FMFlg1=           0
         NFxFlg=           0 DoJE=F BraDBF=F KetDBF=F FulRan=T
         wScrn=  0.000000 ICntrl=       600 IOpCl=  0 I1Cent=           0 NGrid=           0
         NMat0=    1 NMatS0=  10153 NMatT0=    0 NMatD0=    1 NMtDS0=    0 NMtDT0=    0
 Symmetry not used in FoFCou.
 Two-electron integral symmetry not used.
 Closed shell SCF:
 Using DIIS extrapolation, IDIIS=  1040.
 NGot=  1879048192 LenX=  1827453955 LenY=  1827431313
 Requested convergence on RMS density matrix=1.00D-08 within 128 cycles.
 Requested convergence on MAX density matrix=1.00D-06.
 Requested convergence on             energy=1.00D-06.
 No special actions if energy rises.

 Cycle   1  Pass 1  IDiag  1:
 Inv3:  Mode=1 IEnd=     8649612.
 Iteration    1 A*A^-1 deviation from unit magnitude is 3.33D-15 for   1082.
 Iteration    1 A*A^-1 deviation from orthogonality  is 1.83D-15 for    408     77.
 Iteration    1 A^-1*A deviation from unit magnitude is 3.00D-15 for    723.
 Iteration    1 A^-1*A deviation from orthogonality  is 2.43D-15 for    318    127.
 E= -2481.26185760512    
 DIIS: error= 5.29D-02 at cycle   1 NSaved=   1.
 NSaved= 1 IEnMin= 1 EnMin= -2481.26185760512     IErMin= 1 ErrMin= 5.29D-02
 ErrMax= 5.29D-02  0.00D+00 EMaxC= 1.00D-01 BMatC= 2.09D-01 BMatP= 2.09D-01
 IDIUse=3 WtCom= 4.71D-01 WtEn= 5.29D-01
 Coeff-Com:  0.100D+01
 Coeff-En:   0.100D+01
 Coeff:      0.100D+01
 Gap=     0.337 Goal=   None    Shift=    0.000
 GapD=    0.337 DampG=1.000 DampE=0.500 DampFc=0.5000 IDamp=-1.
 Damping current iteration by 5.00D-01
 RMSDP=1.08D-02 MaxDP=3.06D-01              OVMax= 4.57D-01

 Cycle   2  Pass 1  IDiag  1:
 E= -2481.24916784329     Delta-E=        0.012689761833 Rises=F Damp=T
 DIIS: error= 2.65D-02 at cycle   2 NSaved=   2.
 NSaved= 2 IEnMin= 1 EnMin= -2481.26185760512     IErMin= 2 ErrMin= 2.65D-02
 ErrMax= 2.65D-02  0.00D+00 EMaxC= 1.00D-01 BMatC= 4.88D-02 BMatP= 2.09D-01
 IDIUse=3 WtCom= 7.35D-01 WtEn= 2.65D-01
 Coeff-Com:  0.290D+00 0.710D+00
 Coeff-En:   0.525D+00 0.475D+00
 Coeff:      0.352D+00 0.648D+00
 Gap=     0.236 Goal=   None    Shift=    0.000
 RMSDP=3.46D-03 MaxDP=1.18D-01 DE= 1.27D-02 OVMax= 3.31D-01

 Cycle   3  Pass 1  IDiag  1:
 E= -2481.43601311071     Delta-E=       -0.186845267416 Rises=F Damp=F
 DIIS: error= 4.19D-03 at cycle   3 NSaved=   3.
 NSaved= 3 IEnMin= 3 EnMin= -2481.43601311071     IErMin= 3 ErrMin= 4.19D-03
 ErrMax= 4.19D-03  0.00D+00 EMaxC= 1.00D-01 BMatC= 2.37D-03 BMatP= 4.88D-02
 IDIUse=3 WtCom= 9.58D-01 WtEn= 4.19D-02
 Coeff-Com:  0.277D-01 0.164D+00 0.809D+00
 Coeff-En:   0.000D+00 0.000D+00 0.100D+01
 Coeff:      0.265D-01 0.157D+00 0.817D+00
 Gap=     0.262 Goal=   None    Shift=    0.000
 RMSDP=6.26D-04 MaxDP=1.80D-02 DE=-1.87D-01 OVMax= 1.82D-02

 Cycle   4  Pass 1  IDiag  1:
 E= -2481.43854185110     Delta-E=       -0.002528740392 Rises=F Damp=F
 DIIS: error= 2.16D-03 at cycle   4 NSaved=   4.
 NSaved= 4 IEnMin= 4 EnMin= -2481.43854185110     IErMin= 4 ErrMin= 2.16D-03
 ErrMax= 2.16D-03  0.00D+00 EMaxC= 1.00D-01 BMatC= 4.38D-04 BMatP= 2.37D-03
 IDIUse=3 WtCom= 9.78D-01 WtEn= 2.16D-02
 Coeff-Com: -0.221D-02 0.456D-01 0.323D+00 0.633D+00
 Coeff-En:   0.000D+00 0.000D+00 0.000D+00 0.100D+01
 Coeff:     -0.217D-02 0.446D-01 0.316D+00 0.641D+00
 Gap=     0.262 Goal=   None    Shift=    0.000
 RMSDP=2.23D-04 MaxDP=9.30D-03 DE=-2.53D-03 OVMax= 4.57D-03

 Cycle   5  Pass 1  IDiag  1:
 E= -2481.43895919422     Delta-E=       -0.000417343123 Rises=F Damp=F
 DIIS: error= 3.83D-04 at cycle   5 NSaved=   5.
 NSaved= 5 IEnMin= 5 EnMin= -2481.43895919422     IErMin= 5 ErrMin= 3.83D-04
 ErrMax= 3.83D-04  0.00D+00 EMaxC= 1.00D-01 BMatC= 2.22D-05 BMatP= 4.38D-04
 IDIUse=3 WtCom= 9.96D-01 WtEn= 3.83D-03
 Coeff-Com: -0.306D-02 0.100D-01 0.749D-01 0.237D+00 0.681D+00
 Coeff-En:   0.000D+00 0.000D+00 0.000D+00 0.000D+00 0.100D+01
 Coeff:     -0.305D-02 0.100D-01 0.746D-01 0.236D+00 0.682D+00
 Gap=     0.262 Goal=   None    Shift=    0.000
 RMSDP=4.85D-05 MaxDP=2.79D-03 DE=-4.17D-04 OVMax= 1.28D-03

 Cycle   6  Pass 1  IDiag  1:
 E= -2481.43898235172     Delta-E=       -0.000023157500 Rises=F Damp=F
 DIIS: error= 1.37D-04 at cycle   6 NSaved=   6.
 NSaved= 6 IEnMin= 6 EnMin= -2481.43898235172     IErMin= 6 ErrMin= 1.37D-04
 ErrMax= 1.37D-04  0.00D+00 EMaxC= 1.00D-01 BMatC= 1.90D-06 BMatP= 2.22D-05
 IDIUse=3 WtCom= 9.99D-01 WtEn= 1.37D-03
 Coeff-Com: -0.137D-02 0.865D-03 0.362D-02 0.414D-01 0.278D+00 0.677D+00
 Coeff-En:   0.000D+00 0.000D+00 0.000D+00 0.000D+00 0.000D+00 0.100D+01
 Coeff:     -0.137D-02 0.864D-03 0.362D-02 0.414D-01 0.278D+00 0.678D+00
 Gap=     0.262 Goal=   None    Shift=    0.000
 RMSDP=1.25D-05 MaxDP=7.24D-04 DE=-2.32D-05 OVMax= 3.32D-04

 Cycle   7  Pass 1  IDiag  1:
 E= -2481.43898458855     Delta-E=       -0.000002236831 Rises=F Damp=F
 DIIS: error= 1.47D-05 at cycle   7 NSaved=   7.
 NSaved= 7 IEnMin= 7 EnMin= -2481.43898458855     IErMin= 7 ErrMin= 1.47D-05
 ErrMax= 1.47D-05  0.00D+00 EMaxC= 1.00D-01 BMatC= 3.27D-08 BMatP= 1.90D-06
 IDIUse=1 WtCom= 1.00D+00 WtEn= 0.00D+00
 Coeff-Com: -0.285D-03 0.316D-04-0.206D-02 0.342D-03 0.402D-01 0.164D+00
 Coeff-Com:  0.798D+00
 Coeff:     -0.285D-03 0.316D-04-0.206D-02 0.342D-03 0.402D-01 0.164D+00
 Coeff:      0.798D+00
 Gap=     0.262 Goal=   None    Shift=    0.000
 RMSDP=2.04D-06 MaxDP=5.60D-05 DE=-2.24D-06 OVMax= 4.71D-05

 Cycle   8  Pass 1  IDiag  1:
 E= -2481.43898462308     Delta-E=       -0.000000034527 Rises=F Damp=F
 DIIS: error= 3.48D-06 at cycle   8 NSaved=   8.
 NSaved= 8 IEnMin= 8 EnMin= -2481.43898462308     IErMin= 8 ErrMin= 3.48D-06
 ErrMax= 3.48D-06  0.00D+00 EMaxC= 1.00D-01 BMatC= 3.79D-09 BMatP= 3.27D-08
 IDIUse=1 WtCom= 1.00D+00 WtEn= 0.00D+00
 Coeff-Com: -0.653D-04-0.224D-04-0.122D-02-0.225D-02 0.301D-02 0.384D-01
 Coeff-Com:  0.355D+00 0.607D+00
 Coeff:     -0.653D-04-0.224D-04-0.122D-02-0.225D-02 0.301D-02 0.384D-01
 Coeff:      0.355D+00 0.607D+00
 Gap=     0.262 Goal=   None    Shift=    0.000
 RMSDP=6.39D-07 MaxDP=2.88D-05 DE=-3.45D-08 OVMax= 1.46D-05

 Cycle   9  Pass 1  IDiag  1:
 E= -2481.43898462724     Delta-E=       -0.000000004158 Rises=F Damp=F
 DIIS: error= 5.57D-07 at cycle   9 NSaved=   9.
 NSaved= 9 IEnMin= 9 EnMin= -2481.43898462724     IErMin= 9 ErrMin= 5.57D-07
 ErrMax= 5.57D-07  0.00D+00 EMaxC= 1.00D-01 BMatC= 4.08D-11 BMatP= 3.79D-09
 IDIUse=1 WtCom= 1.00D+00 WtEn= 0.00D+00
 Coeff-Com:  0.557D-06-0.433D-05-0.119D-03-0.392D-03-0.165D-02-0.277D-02
 Coeff-Com:  0.166D-01 0.920D-01 0.896D+00
 Coeff:      0.557D-06-0.433D-05-0.119D-03-0.392D-03-0.165D-02-0.277D-02
 Coeff:      0.166D-01 0.920D-01 0.896D+00
 Gap=     0.262 Goal=   None    Shift=    0.000
 RMSDP=8.09D-08 MaxDP=2.79D-06 DE=-4.16D-09 OVMax= 2.54D-06

 Cycle  10  Pass 1  IDiag  1:
 E= -2481.43898462728     Delta-E=       -0.000000000047 Rises=F Damp=F
 DIIS: error= 1.16D-07 at cycle  10 NSaved=  10.
 NSaved=10 IEnMin=10 EnMin= -2481.43898462728     IErMin=10 ErrMin= 1.16D-07
 ErrMax= 1.16D-07  0.00D+00 EMaxC= 1.00D-01 BMatC= 2.01D-12 BMatP= 4.08D-11
 IDIUse=1 WtCom= 1.00D+00 WtEn= 0.00D+00
 Coeff-Com:  0.823D-06 0.715D-06-0.389D-05-0.336D-04-0.384D-03-0.117D-02
 Coeff-Com: -0.222D-02 0.131D-01 0.230D+00 0.761D+00
 Coeff:      0.823D-06 0.715D-06-0.389D-05-0.336D-04-0.384D-03-0.117D-02
 Coeff:     -0.222D-02 0.131D-01 0.230D+00 0.761D+00
 Gap=     0.262 Goal=   None    Shift=    0.000
 RMSDP=1.69D-08 MaxDP=6.49D-07 DE=-4.73D-11 OVMax= 5.14D-07

 Cycle  11  Pass 1  IDiag  1:
 E= -2481.43898462728     Delta-E=        0.000000000002 Rises=F Damp=F
 DIIS: error= 3.69D-08 at cycle  11 NSaved=  11.
 NSaved=11 IEnMin=10 EnMin= -2481.43898462728     IErMin=11 ErrMin= 3.69D-08
 ErrMax= 3.69D-08  0.00D+00 EMaxC= 1.00D-01 BMatC= 1.97D-13 BMatP= 2.01D-12
 IDIUse=1 WtCom= 1.00D+00 WtEn= 0.00D+00
 Coeff-Com:  0.366D-06 0.269D-06 0.445D-05 0.682D-05-0.672D-04-0.307D-03
 Coeff-Com: -0.206D-02-0.878D-03 0.226D-01 0.246D+00 0.734D+00
 Coeff:      0.366D-06 0.269D-06 0.445D-05 0.682D-05-0.672D-04-0.307D-03
 Coeff:     -0.206D-02-0.878D-03 0.226D-01 0.246D+00 0.734D+00
 Gap=     0.262 Goal=   None    Shift=    0.000
 RMSDP=5.57D-09 MaxDP=2.90D-07 DE= 2.27D-12 OVMax= 1.85D-07

 Error on total polarization charges =  0.01507
 SCF Done:  E(RB3LYP) =  -2481.43898463     A.U. after   11 cycles
            NFock= 11  Conv=0.56D-08     -V/T= 2.0026
 KE= 2.474889522818D+03 PE=-7.383862942962D+03 EE= 1.694655294395D+03
 SMD-CDS (non-electrostatic) energy       (kcal/mol) =      -0.33
 (included in total energy above)
 Leave Link  502 at Wed Jun 24 01:03:26 2026, MaxMem=  1879048192 cpu:              20.9 elap:               3.5
 (Enter /CH/g16/l601.exe)
 Copying SCF densities to generalized density rwf, IOpCl= 0 IROHF=0.

 **********************************************************************

            Population analysis using the SCF Density.

 **********************************************************************

 Orbital symmetries:
       Occupied  (A) (A) (A) (A) (A) (A) (A) (A) (A) (A) (A) (A)
                 (A) (A) (A) (A) (A) (A) (A) (A) (A) (A) (A) (A)
                 (A) (A) (A) (A) (A) (A) (A) (A) (A) (A) (A) (A)
                 (A) (A) (A) (A) (A) (A) (A) (A) (A) (A) (A) (A)
                 (A) (A) (A) (A) (A) (A)
       Virtual   (A) (A) (A) (A) (A) (A) (A) (A) (A) (A) (A) (A)
                 (A) (A) (A) (A) (A) (A) (A) (A) (A) (A) (A) (A)
                 (A) (A) (A) (A) (A) (A) (A) (A) (A) (A) (A) (A)
                 (A) (A) (A) (A) (A) (A) (A) (A) (A) (A) (A) (A)
                 (A) (A) (A) (A) (A) (A) (A) (A) (A) (A) (A) (A)
                 (A) (A) (A) (A) (A) (A) (A) (A) (A) (A) (A) (A)
                 (A) (A) (A) (A) (A) (A) (A) (A) (A) (A) (A) (A)
                 (A) (A) (A) (A)
 The electronic state is 1-A.
 Alpha  occ. eigenvalues -- -101.43250-101.43068-101.43060-101.43040 -77.10173
 Alpha  occ. eigenvalues --  -56.04667 -14.23874  -9.38774  -9.38574  -9.38567
 Alpha  occ. eigenvalues --   -9.38545  -7.15289  -7.15076  -7.15070  -7.15050
 Alpha  occ. eigenvalues --   -7.14865  -7.14858  -7.14675  -7.14675  -7.14669
 Alpha  occ. eigenvalues --   -7.14668  -7.14647  -7.14646  -6.59109  -4.75747
 Alpha  occ. eigenvalues --   -4.75678  -4.75557  -4.13972  -2.69589  -2.69582
 Alpha  occ. eigenvalues --   -2.69579  -0.80025  -0.76443  -0.74553  -0.74296
 Alpha  occ. eigenvalues --   -0.74272  -0.60601  -0.43742  -0.39937  -0.39483
 Alpha  occ. eigenvalues --   -0.37885  -0.32744  -0.32734  -0.31978  -0.28303
 Alpha  occ. eigenvalues --   -0.28243  -0.27706  -0.27644  -0.27387  -0.25793
 Alpha  occ. eigenvalues --   -0.25639  -0.25515  -0.24235  -0.20292
 Alpha virt. eigenvalues --    0.05938   0.06181   0.07209   0.09726   0.10058
 Alpha virt. eigenvalues --    0.12312   0.12476   0.12617   0.12910   0.20703
 Alpha virt. eigenvalues --    0.31507   0.31883   0.31916   0.34122   0.34909
 Alpha virt. eigenvalues --    0.40559   0.40588   0.42072   0.45953   0.50965
 Alpha virt. eigenvalues --    0.51018   0.51207   0.52402   0.54885   0.63345
 Alpha virt. eigenvalues --    0.64155   0.64714   0.64798   0.64993   0.66307
 Alpha virt. eigenvalues --    0.70901   0.76956   0.79854   0.80040   0.81339
 Alpha virt. eigenvalues --    0.82446   0.82907   0.83211   0.83262   0.83539
 Alpha virt. eigenvalues --    0.83565   0.83608   0.83660   0.83705   0.84119
 Alpha virt. eigenvalues --    0.85994   0.86650   0.87139   0.87357   0.89308
 Alpha virt. eigenvalues --    0.89475   0.92800   0.94916   0.97027   0.98216
 Alpha virt. eigenvalues --    0.98822   0.98921   1.00826   1.01182   1.05063
 Alpha virt. eigenvalues --    1.07050   1.07938   1.07944   1.14959   1.15217
 Alpha virt. eigenvalues --    1.15746   1.19297   1.36961   1.38332   1.38810
 Alpha virt. eigenvalues --    1.39021   1.42332   1.44966   1.49341   1.50888
 Alpha virt. eigenvalues --    1.68280   1.69611   1.71665   1.82094   2.05102
 Alpha virt. eigenvalues --    2.15678   2.17818   2.25058   2.42162   2.61595
 Alpha virt. eigenvalues --    2.61820   2.84976   3.27771
          Condensed to atoms (all electrons):
               1          2          3          4          5          6
     1  P   13.003463   0.502485  -0.023781   0.306308   0.372932   0.306177
     2  N    0.502485   6.893009   0.300455  -0.023919  -0.036894  -0.023976
     3  H   -0.023781   0.300455   0.593501  -0.005377   0.006482  -0.005346
     4  H    0.306308  -0.023919  -0.005377   0.859198  -0.032004  -0.057947
     5  H    0.372932  -0.036894   0.006482  -0.032004   0.724300  -0.032121
     6  H    0.306177  -0.023976  -0.005346  -0.057947  -0.032121   0.859621
     7  Al  -0.000053   0.000381  -0.000162   0.000005  -0.000002   0.000005
     8  Cl   0.001227  -0.023620   0.019493   0.000037  -0.000045   0.000037
     9  Cl   0.000000  -0.000000   0.000007  -0.000000  -0.000000   0.000000
    10  Cl   0.000000  -0.000000  -0.000005  -0.000000  -0.000000  -0.000000
    11  Cl  -0.000000  -0.000001   0.000022   0.000000  -0.000000   0.000000
               7          8          9         10         11
     1  P   -0.000053   0.001227   0.000000   0.000000  -0.000000
     2  N    0.000381  -0.023620  -0.000000  -0.000000  -0.000001
     3  H   -0.000162   0.019493   0.000007  -0.000005   0.000022
     4  H    0.000005   0.000037  -0.000000  -0.000000   0.000000
     5  H   -0.000002  -0.000045  -0.000000  -0.000000  -0.000000
     6  H    0.000005   0.000037   0.000000  -0.000000   0.000000
     7  Al  11.068150   0.327274   0.332427   0.331728   0.333654
     8  Cl   0.327274  17.084462  -0.014275  -0.014398  -0.013989
     9  Cl   0.332427  -0.014275  17.111990  -0.014412  -0.014461
    10  Cl   0.331728  -0.014398  -0.014412  17.113449  -0.014440
    11  Cl   0.333654  -0.013989  -0.014461  -0.014440  17.109045
 Mulliken charges:
               1
     1  P    0.531244
     2  N   -0.587919
     3  H    0.114713
     4  H   -0.046303
     5  H   -0.002648
     6  H   -0.046451
     7  Al   0.606593
     8  Cl  -0.366202
     9  Cl  -0.401274
    10  Cl  -0.401923
    11  Cl  -0.399830
 Sum of Mulliken charges =  -1.00000
 Mulliken charges with hydrogens summed into heavy atoms:
               1
     1  P    0.435843
     2  N   -0.473206
     7  Al   0.606593
     8  Cl  -0.366202
     9  Cl  -0.401274
    10  Cl  -0.401923
    11  Cl  -0.399830
 Electronic spatial extent (au):  <R**2>=           4007.0418
 Charge=             -1.0000 electrons
 Dipole moment (field-independent basis, Debye):
    X=              9.1984    Y=             -2.2632    Z=             -0.0009  Tot=              9.4727
 Quadrupole moment (field-independent basis, Debye-Ang):
   XX=            -82.9102   YY=            -95.0038   ZZ=            -94.4861
   XY=             -7.6240   XZ=              0.0113   YZ=             -0.0140
 Traceless Quadrupole moment (field-independent basis, Debye-Ang):
   XX=              7.8898   YY=             -4.2038   ZZ=             -3.6860
   XY=             -7.6240   XZ=              0.0113   YZ=             -0.0140
 Octapole moment (field-independent basis, Debye-Ang**2):
  XXX=            195.6168  YYY=             -5.9472  ZZZ=             -7.7358  XYY=             16.1989
  XXY=            -21.5489  XXZ=              0.0359  XZZ=             17.3288  YZZ=              3.8507
  YYZ=              7.7304  XYZ=              0.1491
 Hexadecapole moment (field-independent basis, Debye-Ang**3):
 XXXX=          -3230.6587 YYYY=           -629.0604 ZZZZ=           -617.7412 XXXY=            -57.4432
 XXXZ=              0.2852 YYYX=              2.4237 YYYZ=             -0.1677 ZZZX=             14.7765
 ZZZY=             -0.0110 XXYY=           -832.5414 XXZZ=           -833.2785 YYZZ=           -208.1006
 XXYZ=             -0.5452 YYXZ=            -14.7756 ZZXY=             -7.9588
 N-N= 7.328791411213D+02 E-N=-7.383862946794D+03  KE= 2.474889522818D+03
 No NMR shielding tensors so no spin-rotation constants.
 Leave Link  601 at Wed Jun 24 01:03:26 2026, MaxMem=  1879048192 cpu:               0.3 elap:               0.1
 (Enter /CH/g16/l701.exe)
 ... and contract with generalized density number  0.
 Compute integral first derivatives.
 R6Disp: Adding Grimme-D3(BJ) dispersion energy 1st derivatives to the gradient.
   1 Symmetry operations used in ECPInt.
 ECPInt:  NShTT=    2211 NPrTT=   10033 LenC2=    1898 LenP2D=    5796.
 LDataN:  DoStor=T MaxTD1= 5 Len=  102
 D1PCM: PCM CHGder 1st derivatives, ID1Alg=3 FixD1E=F DoIter=F DoCFld=F I1PDM=0.
 GePol: Maximum number of non-zero 1st derivatives   =     339
 Leave Link  701 at Wed Jun 24 01:03:27 2026, MaxMem=  1879048192 cpu:               2.7 elap:               0.4
 (Enter /CH/g16/l702.exe)
 L702 exits ... SP integral derivatives will be done elsewhere.
 Leave Link  702 at Wed Jun 24 01:03:27 2026, MaxMem=  1879048192 cpu:               0.0 elap:               0.0
 (Enter /CH/g16/l703.exe)
 Integral derivatives from FoFJK, PRISM(SPDF).
 Compute integral first derivatives, UseDBF=F ICtDFT=           0.
 Calling FoFJK, ICntrl=      2127 FMM=F ISym2X=0 I1Cent= 0 IOpClX= 0 NMat=1 NMatS=1 NMatT=0.
 FoFJK:  IHMeth= 1 ICntrl=    2127 DoSepK=F KAlg= 0 I1Cent=           0 FoldK=F
 IRaf=         0 NMat=       1 IRICut=       1 DoRegI=T DoRafI=F ISym2E= 0 IDoP0=0 IntGTp=1.
 FoFCou: FMM=F IPFlag=           0 FMFlag=      100000 FMFlg1=         800
         NFxFlg=           0 DoJE=F BraDBF=F KetDBF=F FulRan=T
         wScrn=  0.000000 ICntrl=      2127 IOpCl=  0 I1Cent=           0 NGrid=           0
         NMat0=    1 NMatS0=      1 NMatT0=    0 NMatD0=    1 NMtDS0=    0 NMtDT0=    0
 Symmetry not used in FoFCou.
 Leave Link  703 at Wed Jun 24 01:03:27 2026, MaxMem=  1879048192 cpu:               3.3 elap:               0.5
 (Enter /CH/g16/l716.exe)
 Dipole        = 3.61891103D+00-8.90427471D-01-3.62998822D-04
 ***** Axes restored to original set *****
 -------------------------------------------------------------------
 Center     Atomic                   Forces (Hartrees/Bohr)
 Number     Number              X              Y              Z
 -------------------------------------------------------------------
      1       15          -0.003728964    0.001369994   -0.000029850
      2        7           0.011411266    0.000778880    0.000021104
      3        1           0.004475826    0.004357937   -0.000011077
      4        1           0.001238469   -0.000240080    0.000283810
      5        1           0.001274845    0.000088369    0.000006063
      6        1           0.001233674   -0.000248282   -0.000268806
      7       13          -0.001243940   -0.000825915   -0.000020989
      8       17          -0.015351398   -0.005053957   -0.000135499
      9       17           0.000201624    0.000009812   -0.000042723
     10       17           0.000038356   -0.000039387   -0.000038208
     11       17           0.000450241   -0.000197371    0.000236174
 -------------------------------------------------------------------
 Cartesian Forces:  Max     0.015351398 RMS     0.003710728
 Leave Link  716 at Wed Jun 24 01:03:27 2026, MaxMem=  1879048192 cpu:               0.0 elap:               0.0
 (Enter /CH/g16/l103.exe)

 GradGradGradGradGradGradGradGradGradGradGradGradGradGradGradGradGradGrad
 Berny optimization.
 FormGI is forming the generalized inverse of G from B-inverse, IUseBI=4.
 Internal  Forces:  Max     0.016804958 RMS     0.004228264
 Search for a local minimum.
 Step number   1 out of a maximum of   43
 All quantities printed in internal units (Hartrees-Bohrs-Radians)
 RMS Force = .42283D-02 SwitMx=.10000D-02 MixMth= 1
 Mixed Optimization -- RFO/linear search
 Second derivative matrix not updated -- first step.
 ITU=  0
     Eigenvalues ---    0.00230   0.00707   0.01809   0.01859   0.03620
     Eigenvalues ---    0.04515   0.09210   0.10457   0.15375   0.15935
     Eigenvalues ---    0.16000   0.16000   0.16000   0.16000   0.20067
     Eigenvalues ---    0.20071   0.20903   0.20904   0.20904   0.20904
     Eigenvalues ---    0.21478   0.25000   0.25000   0.25000   0.25000
     Eigenvalues ---    0.43658   0.54373
 RFO step:  Lambda=-6.83156951D-03 EMin= 2.30000000D-03
 Linear search not attempted -- first point.
 Maximum step size (   0.300) exceeded in Quadratic search.
    -- Step size scaled by   0.870
 Iteration  1 RMS(Cart)=  0.11275463 RMS(Int)=  0.01430890
 Iteration  2 RMS(Cart)=  0.02023793 RMS(Int)=  0.00005211
 Iteration  3 RMS(Cart)=  0.00001460 RMS(Int)=  0.00005162
 Iteration  4 RMS(Cart)=  0.00000000 RMS(Int)=  0.00005162
 ITry= 1 IFail=0 DXMaxC= 3.51D-01 DCOld= 1.00D+10 DXMaxT= 3.00D-01 DXLimC= 3.00D+00 Rises=F
 Variable       Old X    -DE/DX   Delta X   Delta X   Delta X     New X
                                 (Linear)    (Quad)   (Total)
    R1        2.99394  -0.00011   0.00000  -0.00017  -0.00017   2.99376
    R2        2.71193   0.00092   0.00000   0.00384   0.00384   2.71577
    R3        2.66611   0.00064   0.00000   0.00249   0.00249   2.66860
    R4        2.71207   0.00089   0.00000   0.00372   0.00372   2.71579
    R5        1.93566   0.00678   0.00000   0.01330   0.01330   1.94896
    R6        4.03382   0.01680   0.00000   0.28125   0.28125   4.31507
    R7        4.09231   0.00080   0.00000   0.00321   0.00321   4.09552
    R8        4.09231  -0.00007   0.00000  -0.00029  -0.00029   4.09202
    R9        4.09231   0.00008   0.00000   0.00032   0.00032   4.09263
   R10        4.09230  -0.00051   0.00000  -0.00204  -0.00204   4.09026
    A1        2.12199   0.00083   0.00000   0.00422   0.00421   2.12620
    A2        1.91466   0.00129   0.00000   0.00684   0.00682   1.92149
    A3        2.12195   0.00094   0.00000   0.00492   0.00491   2.12686
    A4        1.76779  -0.00127   0.00000  -0.00666  -0.00667   1.76112
    A5        1.71038  -0.00130   0.00000  -0.00690  -0.00690   1.70348
    A6        1.76737  -0.00125   0.00000  -0.00635  -0.00637   1.76101
    A7        1.94568   0.00274   0.00000   0.01429   0.01429   1.95996
    A8        2.23999   0.01535   0.00000   0.05198   0.05198   2.29198
    A9        1.91063  -0.00051   0.00000  -0.00196  -0.00197   1.90866
   A10        1.91063   0.00001   0.00000   0.00012   0.00018   1.91081
   A11        1.91064  -0.00051   0.00000  -0.00159  -0.00164   1.90899
   A12        1.91063   0.00036   0.00000   0.00093   0.00103   1.91167
   A13        1.91063   0.00036   0.00000   0.00108   0.00096   1.91159
   A14        1.91063   0.00029   0.00000   0.00142   0.00144   1.91207
   A15        3.12452  -0.00154   0.00000  -0.05381  -0.05381   3.07070
   A16        3.27549   0.00201   0.00000   0.06807   0.06804   3.34353
    D1       -1.08665  -0.00003   0.00000  -0.00090  -0.00090  -1.08755
    D2       -3.14014  -0.00002   0.00000  -0.00081  -0.00080  -3.14094
    D3        1.09016  -0.00012   0.00000  -0.00163  -0.00164   1.08852
    D4        3.14132  -0.00034   0.00000  -0.02134  -0.02134   3.11998
    D5       -1.74595  -0.00017   0.00000  -0.01169  -0.01188  -1.75783
    D6        2.46494   0.00025   0.00000   0.00709   0.00717   2.47211
    D7        0.36748  -0.00022   0.00000  -0.00802  -0.00791   0.35957
         Item               Value     Threshold  Converged?
 Maximum Force            0.016805     0.000450     NO 
 RMS     Force            0.004228     0.000300     NO 
 Maximum Displacement     0.350746     0.001800     NO 
 RMS     Displacement     0.126696     0.001200     NO 
 Predicted change in Energy=-3.667876D-03
 Lowest energy point so far.  Saving SCF results.
 GradGradGradGradGradGradGradGradGradGradGradGradGradGradGradGradGradGrad

 Leave Link  103 at Wed Jun 24 01:03:27 2026, MaxMem=  1879048192 cpu:               0.0 elap:               0.0
 (Enter /CH/g16/l202.exe)
                          Input orientation:                          
 ---------------------------------------------------------------------
 Center     Atomic      Atomic             Coordinates (Angstroms)
 Number     Number       Type             X           Y           Z
 ---------------------------------------------------------------------
      1         15           0        0.502254   -0.002733    0.009201
      2          7           0       -1.067227    0.206697   -0.042360
      3          1           0       -1.581532   -0.687261   -0.041502
      4          1           0        1.144834   -0.645299    1.122542
      5          1           0        1.158860    1.247496    0.006963
      6          1           0        1.211490   -0.684001   -1.038757
      7         13           0       -5.865480   -1.851928   -0.003956
      8         17           0       -3.819720   -1.139021   -0.064110
      9         17           0       -6.373964   -2.403405    2.027370
     10         17           0       -6.066747   -3.579055   -1.295036
     11         17           0       -7.193137   -0.282419   -0.681385
 ---------------------------------------------------------------------
                    Distance matrix (angstroms):
                    1          2          3          4          5
     1  P    0.000000
     2  N    1.584232   0.000000
     3  H    2.193927   1.031345   0.000000
     4  H    1.437124   2.641232   2.964765   0.000000
     5  H    1.412165   2.457876   3.354904   2.197132   0.000000
     6  H    1.437135   2.641723   2.965721   2.162672   2.197039
     7  Al   6.630817   5.221365   4.439602   7.202045   7.677754
     8  Cl   4.469450   3.063927   2.283436   5.128225   5.521482
     9  Cl   7.557685   6.265611   5.494796   7.774443   8.611304
    10  Cl   7.592291   6.395023   5.481876   8.152208   8.786363
    11  Cl   7.731376   6.178540   5.662460   8.538594   8.518821
                    6          7          8          9         10
     6  H    0.000000
     7  Al   7.246957   0.000000
     8  Cl   5.144905   2.167254   0.000000
     9  Cl   8.360419   2.165403   3.535127   0.000000
    10  Cl   7.837075   2.165725   3.538089   3.537644   0.000000
    11  Cl   8.421801   2.164472   3.534790   3.536521   3.537391
                   11
    11  Cl   0.000000
 Stoichiometry    AlCl4H4NP(1-)
 Framework group  C1[X(AlCl4H4NP)]
 Deg. of freedom    27
 Full point group                 C1      NOp   1
 RotChk:  IX=0 Diff= 7.73D-02
 Largest Abelian subgroup         C1      NOp   1
 Largest concise Abelian subgroup C1      NOp   1
                         Standard orientation:                         
 ---------------------------------------------------------------------
 Center     Atomic      Atomic             Coordinates (Angstroms)
 Number     Number       Type             X           Y           Z
 ---------------------------------------------------------------------
      1         15           0        5.114228   -0.123082    0.003225
      2          7           0        3.676509    0.542158   -0.011238
      3          1           0        2.921202   -0.159135   -0.048299
      4          1           0        5.539079   -0.986286    1.070795
      5          1           0        6.110673    0.876227    0.055063
      6          1           0        5.590132   -0.924864   -1.090402
      7         13           0       -1.515616   -0.009535   -0.000038
      8         17           0        0.649395    0.070853   -0.057097
      9         17           0       -2.163115   -0.496663    2.008051
     10         17           0       -2.218537   -1.527420   -1.375644
     11         17           0       -2.321099    1.916120   -0.572743
 ---------------------------------------------------------------------
 Rotational constants (GHZ):           1.1303394           0.2621620           0.2615036
 Leave Link  202 at Wed Jun 24 01:03:27 2026, MaxMem=  1879048192 cpu:               0.0 elap:               0.0
 (Enter /CH/g16/l301.exe)
 Standard basis: def2SVP (5D, 7F)
 Ernie: Thresh=  0.10000D-02 Tol=  0.10000D-05 Strict=F.
 There are   149 symmetry adapted cartesian basis functions of A   symmetry.
 There are   142 symmetry adapted basis functions of A   symmetry.
   142 basis functions,   275 primitive gaussians,   149 cartesian basis functions
    54 alpha electrons       54 beta electrons
       nuclear repulsion energy       726.6789126307 Hartrees.
 IExCor=  402 DFT=T Ex+Corr=B3LYP ExCW=0 ScaHFX=  0.200000
 ScaDFX=  0.800000  0.720000  1.000000  0.810000 ScalE2=  1.000000  1.000000
 IRadAn=      5 IRanWt=     -1 IRanGd=            0 ICorTp=0 IEmpDi=141
 NAtoms=   11 NActive=   11 NUniq=   11 SFac= 1.00D+00 NAtFMM=   60 NAOKFM=F Big=F
 Integral buffers will be    131072 words long.
 Raffenetti 2 integral format.
 Two-electron integral symmetry is turned on.
 R6Disp:  Grimme-D3(BJ) Dispersion energy=       -0.0229391135 Hartrees.
 Nuclear repulsion after empirical dispersion term =      726.6559735173 Hartrees.
 ------------------------------------------------------------------------------
 Polarizable Continuum Model (PCM)
 =================================
 Model                : PCM.
 Atomic radii         : SMD-Coulomb.
 Polarization charges : Total charges.
 Charge compensation  : None.
 Solution method      : On-the-fly selection.
 Cavity type          : VdW (van der Waals Surface) (Alpha=1.000).
 Cavity algorithm     : GePol (No added spheres)
                        Default sphere list used, NSphG=   11.
                        Lebedev-Laikov grids with approx.  5.0 points / Ang**2.
                        Smoothing algorithm: York/Karplus (Gamma=1.0000).
                        Polarization charges: spherical gaussians, with
                                              point-specific exponents (IZeta= 3).
                        Self-potential: point-specific (ISelfS= 7).
                        Self-field    : sphere-specific E.n sum rule (ISelfD= 2).
 1st derivatives      : Analytical E(r).r(x)/FMM algorithm (CHGder, D1EAlg=3).
                        Cavity 1st derivative terms included.
 Solvent              : TetraHydroFuran, Eps=   7.425700 Eps(inf)=   1.974025
 ------------------------------------------------------------------------------
 Spheres list:
 ISph  on   Nord     Re0    Alpha      Xe            Ye            Ze
    1   P      1    2.1200  1.000      5.114228     -0.123082      0.003225
    2   N      2    1.8900  1.000      3.676509      0.542158     -0.011238
    3   H      3    1.2000  1.000      2.921202     -0.159135     -0.048299
    4   H      4    1.2000  1.000      5.539079     -0.986286      1.070795
    5   H      5    1.2000  1.000      6.110673      0.876227      0.055063
    6   H      6    1.2000  1.000      5.590132     -0.924864     -1.090402
    7  Al      7    2.3000  1.000     -1.515616     -0.009535     -0.000038
    8  Cl      8    2.3800  1.000      0.649395      0.070853     -0.057097
    9  Cl      9    2.3800  1.000     -2.163115     -0.496663      2.008051
   10  Cl     10    2.3800  1.000     -2.218537     -1.527420     -1.375644
   11  Cl     11    2.3800  1.000     -2.321099      1.916120     -0.572743
 ------------------------------------------------------------------------------
 GePol: Number of generator spheres                  =      11
 GePol: Total number of spheres                      =      11
 GePol: Number of exposed spheres                    =      11 (100.00%)
 GePol: Number of points                             =    1717
 GePol: Average weight of points                     =       0.15
 GePol: Minimum weight of points                     =   0.26D-07
 GePol: Maximum weight of points                     =    0.20615
 GePol: Number of points with low weight             =      31
 GePol: Fraction of low-weight points (<1% of avg)   =       1.81%
 GePol: Cavity surface area                          =    254.365 Ang**2
 GePol: Cavity volume                                =    250.973 Ang**3
 ------------------------------------------------------------------------------
 Atomic radii for non-electrostatic terms: SMD-CDS.
 ------------------------------------------------------------------------------
 PCM non-electrostatic energy =        -0.0004809937 Hartrees.
 Nuclear repulsion after PCM non-electrostatic terms =      726.6554925236 Hartrees.
 Leave Link  301 at Wed Jun 24 01:03:27 2026, MaxMem=  1879048192 cpu:               0.1 elap:               0.0
 (Enter /CH/g16/l302.exe)
 NPDir=0 NMtPBC=     1 NCelOv=     1 NCel=       1 NClECP=     1 NCelD=      1
         NCelK=      1 NCelE2=     1 NClLst=     1 CellRange=     0.0.
 One-electron integrals computed using PRISM.
 One-electron integral symmetry used in STVInt
   1 Symmetry operations used in ECPInt.
 ECPInt:  NShTT=    2211 NPrTT=   10033 LenC2=    1886 LenP2D=    5751.
 LDataN:  DoStor=T MaxTD1= 4 Len=   56
 NBasis=   142 RedAO= T EigKep=  1.28D-02  NBF=   142
 NBsUse=   142 1.00D-06 EigRej= -1.00D+00 NBFU=   142
 Precomputing XC quadrature grid using
 IXCGrd= 4 IRadAn=           5 IRanWt=          -1 IRanGd=           0 AccXCQ= 0.00D+00.
 Generated NRdTot=       0 NPtTot=           0 NUsed=           0 NTot=          32
 NSgBfM=   144   144   144   144   144 MxSgAt=    11 MxSgA2=    11.
 Leave Link  302 at Wed Jun 24 01:03:28 2026, MaxMem=  1879048192 cpu:               0.4 elap:               0.1
 (Enter /CH/g16/l303.exe)
 DipDrv:  MaxL=1.
 Leave Link  303 at Wed Jun 24 01:03:28 2026, MaxMem=  1879048192 cpu:               0.0 elap:               0.0
 (Enter /CH/g16/l401.exe)
 Initial guess from the checkpoint file:  "phosphazene_cpx.chk"
 B after Tr=    -0.000000   -0.000000   -0.000000
         Rot=    0.999454   -0.032495   -0.003014   -0.005166 Ang=  -3.79 deg.
 Guess basis will be translated and rotated to current coordinates.
 JPrj=2 DoOrth=T DoCkMO=T.
 Generating alternative initial guess.
 ExpMin= 5.44D-02 ExpMax= 1.04D+04 ExpMxC= 1.57D+03 IAcc=3 IRadAn=         5 AccDes= 0.00D+00
 Harris functional with IExCor=  402 and IRadAn=       5 diagonalized for initial guess.
 HarFok:  IExCor=  402 AccDes= 0.00D+00 IRadAn=         5 IDoV= 1 UseB2=F ITyADJ=14
 ICtDFT=  3500011 ScaDFX=  1.000000  1.000000  1.000000  1.000000
 FoFCou: FMM=F IPFlag=           0 FMFlag=      100000 FMFlg1=           0
         NFxFlg=           0 DoJE=T BraDBF=F KetDBF=T FulRan=T
         wScrn=  0.000000 ICntrl=       500 IOpCl=  0 I1Cent=   200000004 NGrid=           0
         NMat0=    1 NMatS0=      1 NMatT0=    0 NMatD0=    1 NMtDS0=    0 NMtDT0=    0
 Petite list used in FoFCou.
 Harris En= -2481.11951474326    
 Leave Link  401 at Wed Jun 24 01:03:28 2026, MaxMem=  1879048192 cpu:               1.3 elap:               0.2
 (Enter /CH/g16/l502.exe)
 Keep R1 ints in memory in canonical form, NReq=59360619.
 FoFCou: FMM=F IPFlag=           0 FMFlag=           0 FMFlg1=           0
         NFxFlg=           0 DoJE=F BraDBF=F KetDBF=F FulRan=T
         wScrn=  0.000000 ICntrl=       600 IOpCl=  0 I1Cent=           0 NGrid=           0
         NMat0=    1 NMatS0=  10153 NMatT0=    0 NMatD0=    1 NMtDS0=    0 NMtDT0=    0
 Symmetry not used in FoFCou.
 Two-electron integral symmetry not used.
 Closed shell SCF:
 Using DIIS extrapolation, IDIIS=  1040.
 NGot=  1879048192 LenX=  1827453955 LenY=  1827431313
 Requested convergence on RMS density matrix=1.00D-08 within 128 cycles.
 Requested convergence on MAX density matrix=1.00D-06.
 Requested convergence on             energy=1.00D-06.
 No special actions if energy rises.

 Cycle   1  Pass 1  IDiag  1:
 Inv3:  Mode=1 IEnd=     8844267.
 Iteration    1 A*A^-1 deviation from unit magnitude is 3.00D-15 for    926.
 Iteration    1 A*A^-1 deviation from orthogonality  is 2.33D-15 for   1509   1394.
 Iteration    1 A^-1*A deviation from unit magnitude is 2.78D-15 for    926.
 Iteration    1 A^-1*A deviation from orthogonality  is 1.49D-15 for    222    107.
 E= -2481.43887896098    
 DIIS: error= 4.78D-03 at cycle   1 NSaved=   1.
 NSaved= 1 IEnMin= 1 EnMin= -2481.43887896098     IErMin= 1 ErrMin= 4.78D-03
 ErrMax= 4.78D-03  0.00D+00 EMaxC= 1.00D-01 BMatC= 2.86D-03 BMatP= 2.86D-03
 IDIUse=3 WtCom= 9.52D-01 WtEn= 4.78D-02
 Coeff-Com:  0.100D+01
 Coeff-En:   0.100D+01
 Coeff:      0.100D+01
 Gap=     0.494 Goal=   None    Shift=    0.000
 GapD=    0.494 DampG=2.000 DampE=1.000 DampFc=2.0000 IDamp=-1.
 RMSDP=6.46D-04 MaxDP=1.09D-02              OVMax= 1.63D-02

 Cycle   2  Pass 1  IDiag  1:
 E= -2481.44324882469     Delta-E=       -0.004369863709 Rises=F Damp=F
 DIIS: error= 5.31D-04 at cycle   2 NSaved=   2.
 NSaved= 2 IEnMin= 2 EnMin= -2481.44324882469     IErMin= 2 ErrMin= 5.31D-04
 ErrMax= 5.31D-04  0.00D+00 EMaxC= 1.00D-01 BMatC= 4.78D-05 BMatP= 2.86D-03
 IDIUse=3 WtCom= 9.95D-01 WtEn= 5.31D-03
 Coeff-Com: -0.419D-01 0.104D+01
 Coeff-En:   0.000D+00 0.100D+01
 Coeff:     -0.417D-01 0.104D+01
 Gap=     0.262 Goal=   None    Shift=    0.000
 RMSDP=9.31D-05 MaxDP=1.97D-03 DE=-4.37D-03 OVMax= 2.86D-03

 Cycle   3  Pass 1  IDiag  1:
 E= -2481.44327933595     Delta-E=       -0.000030511268 Rises=F Damp=F
 DIIS: error= 7.90D-04 at cycle   3 NSaved=   3.
 NSaved= 3 IEnMin= 3 EnMin= -2481.44327933595     IErMin= 2 ErrMin= 5.31D-04
 ErrMax= 7.90D-04  0.00D+00 EMaxC= 1.00D-01 BMatC= 3.71D-05 BMatP= 4.78D-05
 IDIUse=3 WtCom= 9.92D-01 WtEn= 7.90D-03
 Coeff-Com: -0.297D-01 0.505D+00 0.525D+00
 Coeff-En:   0.000D+00 0.233D+00 0.767D+00
 Coeff:     -0.295D-01 0.503D+00 0.527D+00
 Gap=     0.263 Goal=   None    Shift=    0.000
 RMSDP=5.77D-05 MaxDP=1.82D-03 DE=-3.05D-05 OVMax= 2.12D-03

 Cycle   4  Pass 1  IDiag  1:
 E= -2481.44331058611     Delta-E=       -0.000031250152 Rises=F Damp=F
 DIIS: error= 3.23D-04 at cycle   4 NSaved=   4.
 NSaved= 4 IEnMin= 4 EnMin= -2481.44331058611     IErMin= 4 ErrMin= 3.23D-04
 ErrMax= 3.23D-04  0.00D+00 EMaxC= 1.00D-01 BMatC= 5.21D-06 BMatP= 3.71D-05
 IDIUse=3 WtCom= 9.97D-01 WtEn= 3.23D-03
 Coeff-Com: -0.121D-01 0.186D+00 0.309D+00 0.517D+00
 Coeff-En:   0.000D+00 0.000D+00 0.631D-01 0.937D+00
 Coeff:     -0.121D-01 0.185D+00 0.308D+00 0.519D+00
 Gap=     0.263 Goal=   None    Shift=    0.000
 RMSDP=1.95D-05 MaxDP=6.51D-04 DE=-3.13D-05 OVMax= 9.41D-04

 Cycle   5  Pass 1  IDiag  1:
 E= -2481.44331521647     Delta-E=       -0.000004630368 Rises=F Damp=F
 DIIS: error= 4.52D-05 at cycle   5 NSaved=   5.
 NSaved= 5 IEnMin= 5 EnMin= -2481.44331521647     IErMin= 5 ErrMin= 4.52D-05
 ErrMax= 4.52D-05  0.00D+00 EMaxC= 1.00D-01 BMatC= 2.76D-07 BMatP= 5.21D-06
 IDIUse=1 WtCom= 1.00D+00 WtEn= 0.00D+00
 Coeff-Com: -0.164D-02 0.174D-01 0.743D-01 0.239D+00 0.671D+00
 Coeff:     -0.164D-02 0.174D-01 0.743D-01 0.239D+00 0.671D+00
 Gap=     0.263 Goal=   None    Shift=    0.000
 RMSDP=5.17D-06 MaxDP=2.48D-04 DE=-4.63D-06 OVMax= 1.66D-04

 Cycle   6  Pass 1  IDiag  1:
 E= -2481.44331550440     Delta-E=       -0.000000287921 Rises=F Damp=F
 DIIS: error= 8.89D-06 at cycle   6 NSaved=   6.
 NSaved= 6 IEnMin= 6 EnMin= -2481.44331550440     IErMin= 6 ErrMin= 8.89D-06
 ErrMax= 8.89D-06  0.00D+00 EMaxC= 1.00D-01 BMatC= 1.58D-08 BMatP= 2.76D-07
 IDIUse=1 WtCom= 1.00D+00 WtEn= 0.00D+00
 Coeff-Com:  0.113D-03-0.689D-02 0.961D-02 0.647D-01 0.286D+00 0.647D+00
 Coeff:      0.113D-03-0.689D-02 0.961D-02 0.647D-01 0.286D+00 0.647D+00
 Gap=     0.263 Goal=   None    Shift=    0.000
 RMSDP=1.23D-06 MaxDP=6.64D-05 DE=-2.88D-07 OVMax= 3.35D-05

 Cycle   7  Pass 1  IDiag  1:
 E= -2481.44331552167     Delta-E=       -0.000000017273 Rises=F Damp=F
 DIIS: error= 1.68D-06 at cycle   7 NSaved=   7.
 NSaved= 7 IEnMin= 7 EnMin= -2481.44331552167     IErMin= 7 ErrMin= 1.68D-06
 ErrMax= 1.68D-06  0.00D+00 EMaxC= 1.00D-01 BMatC= 6.69D-10 BMatP= 1.58D-08
 IDIUse=1 WtCom= 1.00D+00 WtEn= 0.00D+00
 Coeff-Com:  0.112D-03-0.374D-02 0.937D-03 0.172D-01 0.944D-01 0.274D+00
 Coeff-Com:  0.617D+00
 Coeff:      0.112D-03-0.374D-02 0.937D-03 0.172D-01 0.944D-01 0.274D+00
 Coeff:      0.617D+00
 Gap=     0.263 Goal=   None    Shift=    0.000
 RMSDP=2.70D-07 MaxDP=1.18D-05 DE=-1.73D-08 OVMax= 6.37D-06

 Cycle   8  Pass 1  IDiag  1:
 E= -2481.44331552246     Delta-E=       -0.000000000790 Rises=F Damp=F
 DIIS: error= 2.48D-07 at cycle   8 NSaved=   8.
 NSaved= 8 IEnMin= 8 EnMin= -2481.44331552246     IErMin= 8 ErrMin= 2.48D-07
 ErrMax= 2.48D-07  0.00D+00 EMaxC= 1.00D-01 BMatC= 1.12D-11 BMatP= 6.69D-10
 IDIUse=1 WtCom= 1.00D+00 WtEn= 0.00D+00
 Coeff-Com:  0.131D-04-0.236D-03-0.369D-03-0.998D-03 0.943D-04 0.989D-02
 Coeff-Com:  0.110D+00 0.882D+00
 Coeff:      0.131D-04-0.236D-03-0.369D-03-0.998D-03 0.943D-04 0.989D-02
 Coeff:      0.110D+00 0.882D+00
 Gap=     0.263 Goal=   None    Shift=    0.000
 RMSDP=5.19D-08 MaxDP=1.31D-06 DE=-7.90D-10 OVMax= 1.74D-06

 Cycle   9  Pass 1  IDiag  1:
 E= -2481.44331552246     Delta-E=       -0.000000000004 Rises=F Damp=F
 DIIS: error= 6.34D-08 at cycle   9 NSaved=   9.
 NSaved= 9 IEnMin= 9 EnMin= -2481.44331552246     IErMin= 9 ErrMin= 6.34D-08
 ErrMax= 6.34D-08  0.00D+00 EMaxC= 1.00D-01 BMatC= 1.32D-12 BMatP= 1.12D-11
 IDIUse=1 WtCom= 1.00D+00 WtEn= 0.00D+00
 Coeff-Com: -0.774D-06 0.109D-03-0.175D-03-0.127D-02-0.471D-02-0.102D-01
 Coeff-Com:  0.867D-02 0.320D+00 0.687D+00
 Coeff:     -0.774D-06 0.109D-03-0.175D-03-0.127D-02-0.471D-02-0.102D-01
 Coeff:      0.867D-02 0.320D+00 0.687D+00
 Gap=     0.263 Goal=   None    Shift=    0.000
 RMSDP=1.28D-08 MaxDP=4.91D-07 DE=-4.09D-12 OVMax= 3.41D-07

 Cycle  10  Pass 1  IDiag  1:
 E= -2481.44331552247     Delta-E=       -0.000000000008 Rises=F Damp=F
 DIIS: error= 1.19D-08 at cycle  10 NSaved=  10.
 NSaved=10 IEnMin=10 EnMin= -2481.44331552247     IErMin=10 ErrMin= 1.19D-08
 ErrMax= 1.19D-08  0.00D+00 EMaxC= 1.00D-01 BMatC= 4.45D-14 BMatP= 1.32D-12
 IDIUse=1 WtCom= 1.00D+00 WtEn= 0.00D+00
 Coeff-Com: -0.870D-06 0.488D-04-0.453D-04-0.396D-03-0.162D-02-0.390D-02
 Coeff-Com: -0.189D-02 0.678D-01 0.216D+00 0.724D+00
 Coeff:     -0.870D-06 0.488D-04-0.453D-04-0.396D-03-0.162D-02-0.390D-02
 Coeff:     -0.189D-02 0.678D-01 0.216D+00 0.724D+00
 Gap=     0.263 Goal=   None    Shift=    0.000
 RMSDP=2.85D-09 MaxDP=1.05D-07 DE=-8.19D-12 OVMax= 6.75D-08

 Error on total polarization charges =  0.01478
 SCF Done:  E(RB3LYP) =  -2481.44331552     A.U. after   10 cycles
            NFock= 10  Conv=0.28D-08     -V/T= 2.0027
 KE= 2.474833859256D+03 PE=-7.371222633441D+03 EE= 1.688289966139D+03
 SMD-CDS (non-electrostatic) energy       (kcal/mol) =      -0.30
 (included in total energy above)
 Leave Link  502 at Wed Jun 24 01:03:31 2026, MaxMem=  1879048192 cpu:              20.2 elap:               3.4
 (Enter /CH/g16/l701.exe)
 ... and contract with generalized density number  0.
 Compute integral first derivatives.
 R6Disp: Adding Grimme-D3(BJ) dispersion energy 1st derivatives to the gradient.
   1 Symmetry operations used in ECPInt.
 ECPInt:  NShTT=    2211 NPrTT=   10033 LenC2=    1886 LenP2D=    5751.
 LDataN:  DoStor=T MaxTD1= 5 Len=  102
 D1PCM: PCM CHGder 1st derivatives, ID1Alg=3 FixD1E=F DoIter=F DoCFld=F I1PDM=0.
 GePol: Maximum number of non-zero 1st derivatives   =     342
 Leave Link  701 at Wed Jun 24 01:03:32 2026, MaxMem=  1879048192 cpu:               2.7 elap:               0.4
 (Enter /CH/g16/l702.exe)
 L702 exits ... SP integral derivatives will be done elsewhere.
 Leave Link  702 at Wed Jun 24 01:03:32 2026, MaxMem=  1879048192 cpu:               0.0 elap:               0.0
 (Enter /CH/g16/l703.exe)
 Integral derivatives from FoFJK, PRISM(SPDF).
 Compute integral first derivatives, UseDBF=F ICtDFT=           0.
 Calling FoFJK, ICntrl=      2127 FMM=F ISym2X=0 I1Cent= 0 IOpClX= 0 NMat=1 NMatS=1 NMatT=0.
 FoFJK:  IHMeth= 1 ICntrl=    2127 DoSepK=F KAlg= 0 I1Cent=           0 FoldK=F
 IRaf=         0 NMat=       1 IRICut=       1 DoRegI=T DoRafI=F ISym2E= 0 IDoP0=0 IntGTp=1.
 FoFCou: FMM=F IPFlag=           0 FMFlag=      100000 FMFlg1=         800
         NFxFlg=           0 DoJE=F BraDBF=F KetDBF=F FulRan=T
         wScrn=  0.000000 ICntrl=      2127 IOpCl=  0 I1Cent=           0 NGrid=           0
         NMat0=    1 NMatS0=      1 NMatT0=    0 NMatD0=    1 NMtDS0=    0 NMtDT0=    0
 Symmetry not used in FoFCou.
 Leave Link  703 at Wed Jun 24 01:03:32 2026, MaxMem=  1879048192 cpu:               3.2 elap:               0.4
 (Enter /CH/g16/l716.exe)
 Dipole        = 3.64258837D+00-9.41075284D-01-7.12825295D-03
 ***** Axes restored to original set *****
 -------------------------------------------------------------------
 Center     Atomic                   Forces (Hartrees/Bohr)
 Number     Number              X              Y              Z
 -------------------------------------------------------------------
      1       15          -0.002429865   -0.000238184    0.000011870
      2        7           0.004610005   -0.004049111   -0.000037469
      3        1           0.005225298    0.007447134    0.000071295
      4        1           0.000182256    0.000028699    0.000015307
      5        1          -0.000076344   -0.000067940   -0.000010832
      6        1           0.000174912    0.000023358   -0.000031893
      7       13          -0.000687054   -0.000748635    0.000124197
      8       17          -0.007400205   -0.002428380   -0.000076807
      9       17           0.000184148   -0.000023065   -0.000210512
     10       17           0.000010668    0.000212648    0.000102722
     11       17           0.000206179   -0.000156524    0.000042124
 -------------------------------------------------------------------
 Cartesian Forces:  Max     0.007447134 RMS     0.002389199
 Leave Link  716 at Wed Jun 24 01:03:32 2026, MaxMem=  1879048192 cpu:               0.0 elap:               0.0
 (Enter /CH/g16/l103.exe)

 GradGradGradGradGradGradGradGradGradGradGradGradGradGradGradGradGradGrad
 Berny optimization.
 Using GEDIIS/GDIIS optimizer.
 FormGI is forming the generalized inverse of G from B-inverse, IUseBI=4.
 Internal  Forces:  Max     0.009253867 RMS     0.002254394
 Search for a local minimum.
 Step number   2 out of a maximum of   43
 All quantities printed in internal units (Hartrees-Bohrs-Radians)
 RMS Force = .22544D-02 SwitMx=.10000D-02 MixMth= 1
 Mixed Optimization -- RFO/linear search
 Update second derivatives using D2CorX and points    1    2
 DE= -4.33D-03 DEPred=-3.67D-03 R= 1.18D+00
 TightC=F SS=  1.41D+00  RLast= 3.01D-01 DXNew= 5.0454D-01 9.0351D-01
 Trust test= 1.18D+00 RLast= 3.01D-01 DXMaxT set to 5.05D-01
 ITU=  1  0
 Use linear search instead of GDIIS.
     Eigenvalues ---    0.00230   0.00706   0.01755   0.01815   0.03238
     Eigenvalues ---    0.03620   0.09170   0.10402   0.15196   0.15984
     Eigenvalues ---    0.16000   0.16000   0.16089   0.16424   0.20068
     Eigenvalues ---    0.20084   0.20884   0.20903   0.20904   0.20909
     Eigenvalues ---    0.21489   0.22705   0.25000   0.25000   0.25003
     Eigenvalues ---    0.45751   0.54564
 RFO step:  Lambda=-1.43919664D-03 EMin= 2.29878058D-03
 Quartic linear search produced a step of  1.56861.
 Iteration  1 RMS(Cart)=  0.26970258 RMS(Int)=  0.05783262
 Iteration  2 RMS(Cart)=  0.05311790 RMS(Int)=  0.01761545
 Iteration  3 RMS(Cart)=  0.02840875 RMS(Int)=  0.00069568
 Iteration  4 RMS(Cart)=  0.00001904 RMS(Int)=  0.00069565
 Iteration  5 RMS(Cart)=  0.00000002 RMS(Int)=  0.00069565
 ITry= 1 IFail=0 DXMaxC= 7.01D-01 DCOld= 1.00D+10 DXMaxT= 5.05D-01 DXLimC= 3.00D+00 Rises=F
 Variable       Old X    -DE/DX   Delta X   Delta X   Delta X     New X
                                 (Linear)    (Quad)   (Total)
    R1        2.99376  -0.00210  -0.00027  -0.00956  -0.00984   2.98393
    R2        2.71577   0.00008   0.00602  -0.00513   0.00089   2.71667
    R3        2.66860  -0.00009   0.00391  -0.00514  -0.00123   2.66738
    R4        2.71579   0.00009   0.00584  -0.00487   0.00097   2.71676
    R5        1.94896  -0.00249   0.02086  -0.03641  -0.01555   1.93341
    R6        4.31507   0.00815   0.44116   0.04398   0.48515   4.80022
    R7        4.09552   0.00048   0.00503   0.00060   0.00563   4.10115
    R8        4.09202  -0.00021  -0.00046  -0.00209  -0.00256   4.08946
    R9        4.09263  -0.00022   0.00050  -0.00323  -0.00273   4.08989
   R10        4.09026  -0.00025  -0.00319   0.00022  -0.00298   4.08728
    A1        2.12620   0.00024   0.00661  -0.00248   0.00410   2.13030
    A2        1.92149  -0.00023   0.01070  -0.01570  -0.00501   1.91647
    A3        2.12686   0.00025   0.00770  -0.00330   0.00438   2.13123
    A4        1.76112  -0.00010  -0.01046   0.00826  -0.00221   1.75891
    A5        1.70348  -0.00016  -0.01083   0.01004  -0.00082   1.70266
    A6        1.76101  -0.00010  -0.00999   0.00786  -0.00214   1.75886
    A7        1.95996  -0.00093   0.02241  -0.03765  -0.01524   1.94473
    A8        2.29198   0.00925   0.08154   0.00956   0.09110   2.38308
    A9        1.90866  -0.00034  -0.00310  -0.00044  -0.00448   1.90418
   A10        1.91081   0.00002   0.00028  -0.00042   0.00083   1.91164
   A11        1.90899  -0.00012  -0.00258   0.00212  -0.00037   1.90862
   A12        1.91167   0.00016   0.00162  -0.00138  -0.00001   1.91166
   A13        1.91159   0.00033   0.00150   0.00250   0.00250   1.91409
   A14        1.91207  -0.00006   0.00226  -0.00236   0.00152   1.91359
   A15        3.07070  -0.00105  -0.08441  -0.07446  -0.15957   2.91114
   A16        3.34353   0.00137   0.10673   0.09927   0.20554   3.54907
    D1       -1.08755  -0.00019  -0.00141  -0.00549  -0.00691  -1.09446
    D2       -3.14094  -0.00003  -0.00126  -0.00112  -0.00238   3.13987
    D3        1.08852   0.00012  -0.00257   0.00443   0.00186   1.09038
    D4        3.11998  -0.00031  -0.03347  -0.08613  -0.11960   3.00038
    D5       -1.75783  -0.00029  -0.01864  -0.07928  -0.09865  -1.85648
    D6        2.47211   0.00008   0.01124  -0.05079  -0.04114   2.43097
    D7        0.35957  -0.00006  -0.01240  -0.06720  -0.07727   0.28230
         Item               Value     Threshold  Converged?
 Maximum Force            0.009254     0.000450     NO 
 RMS     Force            0.002254     0.000300     NO 
 Maximum Displacement     0.700933     0.001800     NO 
 RMS     Displacement     0.309063     0.001200     NO 
 Predicted change in Energy=-1.019692D-03
 Lowest energy point so far.  Saving SCF results.
 GradGradGradGradGradGradGradGradGradGradGradGradGradGradGradGradGradGrad

 Leave Link  103 at Wed Jun 24 01:03:32 2026, MaxMem=  1879048192 cpu:               0.0 elap:               0.0
 (Enter /CH/g16/l202.exe)
                          Input orientation:                          
 ---------------------------------------------------------------------
 Center     Atomic      Atomic             Coordinates (Angstroms)
 Number     Number       Type             X           Y           Z
 ---------------------------------------------------------------------
      1         15           0        0.577247   -0.035615    0.034255
      2          7           0       -0.923781    0.378298   -0.228253
      3          1           0       -1.546925   -0.432310   -0.191227
      4          1           0        1.003281   -0.610793    1.280992
      5          1           0        1.405721    1.105562   -0.026741
      6          1           0        1.287197   -0.930159   -0.839012
      7         13           0       -5.954859   -1.860833   -0.007700
      8         17           0       -4.055253   -0.832402   -0.216863
      9         17           0       -6.170520   -2.541391    2.035198
     10         17           0       -6.008423   -3.560813   -1.346096
     11         17           0       -7.564055   -0.500474   -0.495583
 ---------------------------------------------------------------------
                    Distance matrix (angstroms):
                    1          2          3          4          5
     1  P    0.000000
     2  N    1.579026   0.000000
     3  H    2.172629   1.023116   0.000000
     4  H    1.437597   2.640017   2.950056   0.000000
     5  H    1.411515   2.448693   3.333200   2.194993   0.000000
     6  H    1.437648   2.640740   2.949529   2.162642   2.194992
     7  Al   6.782447   5.511270   4.637267   7.186031   7.935868
     8  Cl   4.707228   3.357387   2.540166   5.280289   5.797766
     9  Cl   7.470947   6.416858   5.548227   7.467225   8.657441
    10  Cl   7.596278   6.528381   5.570119   8.047869   8.859192
    11  Cl   8.171758   6.703502   6.025208   8.750293   9.124475
                    6          7          8          9         10
     6  H    0.000000
     7  Al   7.348782   0.000000
     8  Cl   5.379442   2.170235   0.000000
     9  Cl   8.153201   2.164047   3.530832   0.000000
    10  Cl   7.771972   2.164279   3.540376   3.535342   0.000000
    11  Cl   8.868327   2.162896   3.535470   3.537249   3.536812
                   11
    11  Cl   0.000000
 Stoichiometry    AlCl4H4NP(1-)
 Framework group  C1[X(AlCl4H4NP)]
 Deg. of freedom    27
 Full point group                 C1      NOp   1
 RotChk:  IX=0 Diff= 3.35D-01
 Largest Abelian subgroup         C1      NOp   1
 Largest concise Abelian subgroup C1      NOp   1
                         Standard orientation:                         
 ---------------------------------------------------------------------
 Center     Atomic      Atomic             Coordinates (Angstroms)
 Number     Number       Type             X           Y           Z
 ---------------------------------------------------------------------
      1         15           0        5.218801   -0.172546    0.003386
      2          7           0        3.903246    0.700644   -0.009869
      3          1           0        3.071310    0.120985   -0.146407
      4          1           0        5.457786   -1.177121    1.003586
      5          1           0        6.343330    0.659653    0.191142
      6          1           0        5.639013   -0.938698   -1.138219
      7         13           0       -1.561746   -0.012010   -0.000273
      8         17           0        0.555040    0.460964   -0.074005
      9         17           0       -1.968285   -1.163420    1.786366
     10         17           0       -2.105697   -1.169427   -1.746299
     11         17           0       -2.705380    1.823353    0.040510
 ---------------------------------------------------------------------
 Rotational constants (GHZ):           1.1225488           0.2513591           0.2503022
 Leave Link  202 at Wed Jun 24 01:03:32 2026, MaxMem=  1879048192 cpu:               0.0 elap:               0.0
 (Enter /CH/g16/l301.exe)
 Standard basis: def2SVP (5D, 7F)
 Ernie: Thresh=  0.10000D-02 Tol=  0.10000D-05 Strict=F.
 There are   149 symmetry adapted cartesian basis functions of A   symmetry.
 There are   142 symmetry adapted basis functions of A   symmetry.
   142 basis functions,   275 primitive gaussians,   149 cartesian basis functions
    54 alpha electrons       54 beta electrons
       nuclear repulsion energy       719.9016967226 Hartrees.
 IExCor=  402 DFT=T Ex+Corr=B3LYP ExCW=0 ScaHFX=  0.200000
 ScaDFX=  0.800000  0.720000  1.000000  0.810000 ScalE2=  1.000000  1.000000
 IRadAn=      5 IRanWt=     -1 IRanGd=            0 ICorTp=0 IEmpDi=141
 NAtoms=   11 NActive=   11 NUniq=   11 SFac= 1.00D+00 NAtFMM=   60 NAOKFM=F Big=F
 Integral buffers will be    131072 words long.
 Raffenetti 2 integral format.
 Two-electron integral symmetry is turned on.
 R6Disp:  Grimme-D3(BJ) Dispersion energy=       -0.0224913481 Hartrees.
 Nuclear repulsion after empirical dispersion term =      719.8792053745 Hartrees.
 ------------------------------------------------------------------------------
 Polarizable Continuum Model (PCM)
 =================================
 Model                : PCM.
 Atomic radii         : SMD-Coulomb.
 Polarization charges : Total charges.
 Charge compensation  : None.
 Solution method      : On-the-fly selection.
 Cavity type          : VdW (van der Waals Surface) (Alpha=1.000).
 Cavity algorithm     : GePol (No added spheres)
                        Default sphere list used, NSphG=   11.
                        Lebedev-Laikov grids with approx.  5.0 points / Ang**2.
                        Smoothing algorithm: York/Karplus (Gamma=1.0000).
                        Polarization charges: spherical gaussians, with
                                              point-specific exponents (IZeta= 3).
                        Self-potential: point-specific (ISelfS= 7).
                        Self-field    : sphere-specific E.n sum rule (ISelfD= 2).
 1st derivatives      : Analytical E(r).r(x)/FMM algorithm (CHGder, D1EAlg=3).
                        Cavity 1st derivative terms included.
 Solvent              : TetraHydroFuran, Eps=   7.425700 Eps(inf)=   1.974025
 ------------------------------------------------------------------------------
 Spheres list:
 ISph  on   Nord     Re0    Alpha      Xe            Ye            Ze
    1   P      1    2.1200  1.000      5.218801     -0.172546      0.003386
    2   N      2    1.8900  1.000      3.903246      0.700644     -0.009869
    3   H      3    1.2000  1.000      3.071310      0.120985     -0.146407
    4   H      4    1.2000  1.000      5.457786     -1.177121      1.003586
    5   H      5    1.2000  1.000      6.343330      0.659653      0.191142
    6   H      6    1.2000  1.000      5.639013     -0.938698     -1.138219
    7  Al      7    2.3000  1.000     -1.561746     -0.012010     -0.000273
    8  Cl      8    2.3800  1.000      0.555040      0.460964     -0.074005
    9  Cl      9    2.3800  1.000     -1.968285     -1.163420      1.786366
   10  Cl     10    2.3800  1.000     -2.105697     -1.169427     -1.746299
   11  Cl     11    2.3800  1.000     -2.705380      1.823353      0.040510
 ------------------------------------------------------------------------------
 GePol: Number of generator spheres                  =      11
 GePol: Total number of spheres                      =      11
 GePol: Number of exposed spheres                    =      11 (100.00%)
 GePol: Number of points                             =    1738
 GePol: Average weight of points                     =       0.15
 GePol: Minimum weight of points                     =   0.86D-08
 GePol: Maximum weight of points                     =    0.20615
 GePol: Number of points with low weight             =      33
 GePol: Fraction of low-weight points (<1% of avg)   =       1.90%
 GePol: Cavity surface area                          =    257.708 Ang**2
 GePol: Cavity volume                                =    253.055 Ang**3
 ------------------------------------------------------------------------------
 Atomic radii for non-electrostatic terms: SMD-CDS.
 ------------------------------------------------------------------------------
 PCM non-electrostatic energy =        -0.0004203668 Hartrees.
 Nuclear repulsion after PCM non-electrostatic terms =      719.8787850077 Hartrees.
[...]
 InvSVX:  RCond= 3.91D-08 Info=           0 Equed=N FErr=  2.09D-14 BErr=  9.35D-17
 DIIS inversion failure, remove point   5.
 InvSVX:  RCond= 5.20D-08 Info=           0 Equed=N FErr=  1.62D-14 BErr=  6.05D-17
 DIIS inversion failure, remove point   4.
 InvSVX:  RCond= 1.33D-07 Info=           0 Equed=N FErr=  4.77D-15 BErr=  7.44D-17
 RFO-DIIS uses    3 points instead of    7
 DidBck=F Rises=F RFO-DIIS coefs:    1.46861   -0.29511   -0.17351    0.00000    0.00000
                  RFO-DIIS coefs:    0.00000    0.00000
 Iteration  1 RMS(Cart)=  0.00042125 RMS(Int)=  0.00000009
 Iteration  2 RMS(Cart)=  0.00000012 RMS(Int)=  0.00000006
 ITry= 1 IFail=0 DXMaxC= 9.04D-04 DCOld= 1.00D+10 DXMaxT= 5.00D-02 DXLimC= 3.00D+00 Rises=F
 Variable       Old X    -DE/DX   Delta X   Delta X   Delta X     New X
                                 (Linear)    (Quad)   (Total)
    R1        2.99587  -0.00001   0.00000  -0.00000   0.00000   2.99587
    R2        2.69658   0.00000  -0.00002  -0.00001  -0.00004   2.69654
    R3        2.67074   0.00000  -0.00001  -0.00001  -0.00002   2.67072
    R4        2.70984   0.00001   0.00000   0.00001   0.00001   2.70986
    R5        1.93349   0.00001   0.00001  -0.00001  -0.00001   1.93348
    R6        5.32427   0.00000   0.00029   0.00023   0.00052   5.32479
    R7        4.08585   0.00002  -0.00010   0.00003  -0.00007   4.08579
    R8        4.08566  -0.00000   0.00004  -0.00004   0.00000   4.08566
    R9        4.10899   0.00001   0.00000  -0.00001  -0.00001   4.10898
   R10        4.08591   0.00001   0.00002   0.00004   0.00006   4.08597
    A1        2.12298  -0.00000   0.00000  -0.00001  -0.00001   2.12297
    A2        1.89740  -0.00001   0.00004  -0.00006  -0.00003   1.89738
    A3        2.12832   0.00001  -0.00004   0.00002  -0.00003   2.12830
    A4        1.77378   0.00001   0.00003   0.00004   0.00007   1.77385
    A5        1.72232   0.00000  -0.00000   0.00002   0.00002   1.72234
    A6        1.75851   0.00000  -0.00001  -0.00001  -0.00002   1.75849
    A7        1.95170  -0.00001   0.00005  -0.00001   0.00004   1.95174
    A8        2.50952  -0.00011  -0.00011  -0.00015  -0.00026   2.50927
    A9        1.93477   0.00001   0.00000   0.00006   0.00006   1.93482
   A10        1.89139  -0.00001  -0.00002   0.00001  -0.00001   1.89138
   A11        1.91540   0.00001   0.00004  -0.00001   0.00003   1.91543
   A12        1.90961   0.00000   0.00005  -0.00001   0.00004   1.90965
   A13        1.91444  -0.00001  -0.00013  -0.00004  -0.00017   1.91428
   A14        1.89771  -0.00000   0.00006  -0.00001   0.00004   1.89775
   A15        1.88583   0.00001  -0.00008   0.00008  -0.00000   1.88582
   A16        4.62127   0.00000   0.00006   0.00017   0.00024   4.62151
    D1       -1.09653  -0.00000   0.00027   0.00004   0.00030  -1.09622
    D2        3.13934   0.00000   0.00019   0.00004   0.00023   3.13957
    D3        1.10916   0.00000   0.00021   0.00008   0.00030   1.10945
    D4        1.93676  -0.00002   0.00022  -0.00044  -0.00022   1.93654
    D5        0.27940  -0.00001  -0.00015  -0.00021  -0.00035   0.27904
    D6       -1.67277  -0.00000  -0.00024  -0.00013  -0.00037  -1.67314
    D7       -2.96036  -0.00000  -0.00001   0.00013   0.00012  -2.96024
         Item               Value     Threshold  Converged?
 Maximum Force            0.000108     0.000450     YES
 RMS     Force            0.000021     0.000300     YES
 Maximum Displacement     0.000904     0.001800     YES
 RMS     Displacement     0.000421     0.001200     YES
 Predicted change in Energy=-1.718710D-08
 Optimization completed.
    -- Stationary point found.
                           ----------------------------
                           !   Optimized Parameters   !
                           ! (Angstroms and Degrees)  !
 --------------------------                            --------------------------
 ! Name  Definition              Value          Derivative Info.                !
 --------------------------------------------------------------------------------
 ! R1    R(1,2)                  1.5853         -DE/DX =    0.0                 !
 ! R2    R(1,4)                  1.427          -DE/DX =    0.0                 !
 ! R3    R(1,5)                  1.4133         -DE/DX =    0.0                 !
 ! R4    R(1,6)                  1.434          -DE/DX =    0.0                 !
 ! R5    R(2,3)                  1.0232         -DE/DX =    0.0                 !
 ! R6    R(3,8)                  2.8175         -DE/DX =    0.0                 !
 ! R7    R(7,8)                  2.1621         -DE/DX =    0.0                 !
 ! R8    R(7,9)                  2.162          -DE/DX =    0.0                 !
 ! R9    R(7,10)                 2.1744         -DE/DX =    0.0                 !
 ! R10   R(7,11)                 2.1622         -DE/DX =    0.0                 !
 ! A1    A(2,1,4)              121.6379         -DE/DX =    0.0                 !
 ! A2    A(2,1,5)              108.7132         -DE/DX =    0.0                 !
 ! A3    A(2,1,6)              121.944          -DE/DX =    0.0                 !
 ! A4    A(4,1,5)              101.6298         -DE/DX =    0.0                 !
 ! A5    A(4,1,6)               98.6816         -DE/DX =    0.0                 !
 ! A6    A(5,1,6)              100.7552         -DE/DX =    0.0                 !
 ! A7    A(1,2,3)              111.824          -DE/DX =    0.0                 !
 ! A8    A(2,3,8)              143.7852         -DE/DX =   -0.0001              !
 ! A9    A(8,7,9)              110.8539         -DE/DX =    0.0                 !
 ! A10   A(8,7,10)             108.3686         -DE/DX =    0.0                 !
 ! A11   A(8,7,11)             109.7442         -DE/DX =    0.0                 !
 ! A12   A(9,7,10)             109.4128         -DE/DX =    0.0                 !
 ! A13   A(9,7,11)             109.6895         -DE/DX =    0.0                 !
 ! A14   A(10,7,11)            108.7305         -DE/DX =    0.0                 !
 ! A15   L(3,8,7,9,-1)         108.0499         -DE/DX =    0.0                 !
 ! A16   L(3,8,7,9,-2)         264.7794         -DE/DX =    0.0                 !
 ! D1    D(4,1,2,3)            -62.8263         -DE/DX =    0.0                 !
 ! D2    D(5,1,2,3)            179.8708         -DE/DX =    0.0                 !
 ! D3    D(6,1,2,3)             63.55           -DE/DX =    0.0                 !
 ! D4    D(1,2,3,8)            110.968          -DE/DX =    0.0                 !
 ! D5    D(2,3,7,9)             16.0083         -DE/DX =    0.0                 !
 ! D6    D(2,3,7,10)           -95.8428         -DE/DX =    0.0                 !
 ! D7    D(2,3,7,11)          -169.6163         -DE/DX =    0.0                 !
 --------------------------------------------------------------------------------
 Largest change from initial coordinates is atom    4       2.615 Angstoms.
 GradGradGradGradGradGradGradGradGradGradGradGradGradGradGradGradGradGrad

 Leave Link  103 at Wed Jun 24 01:06:34 2026, MaxMem=  1879048192 cpu:               0.0 elap:               0.0
 (Enter /CH/g16/l202.exe)
                          Input orientation:                          
 ---------------------------------------------------------------------
 Center     Atomic      Atomic             Coordinates (Angstroms)
 Number     Number       Type             X           Y           Z
 ---------------------------------------------------------------------
      1         15           0       -0.560398   -0.758868    0.064297
      2          7           0       -1.225520    0.564639   -0.500732
      3          1           0       -2.108852    0.371858   -0.979701
      4          1           0       -1.202315   -1.552276    1.061635
      5          1           0        0.651300   -0.418577    0.707258
      6          1           0       -0.117625   -1.814090   -0.799868
      7         13           0       -4.681869   -1.231760    0.102486
      8         17           0       -4.901437    0.710542   -0.821693
      9         17           0       -3.926149   -1.043433    2.119371
     10         17           0       -3.286755   -2.402168   -1.085687
     11         17           0       -6.590750   -2.246796    0.131605
 ---------------------------------------------------------------------
                    Distance matrix (angstroms):
                    1          2          3          4          5
     1  P    0.000000
     2  N    1.585344   0.000000
     3  H    2.183159   1.023157   0.000000
     4  H    1.426968   2.631133   2.948077   0.000000
     5  H    1.413297   2.438936   3.330024   2.201532   0.000000
     6  H    1.433988   2.641072   2.962380   2.170321   2.193201
     7  Al   4.148688   3.941734   3.219183   3.623534   5.428601
     8  Cl   4.667844   3.692786   2.817482   4.727661   5.869028
     9  Cl   3.953806   4.091970   3.861329   2.965973   4.830894
    10  Cl   3.384660   3.659618   3.015612   3.110981   4.759996
    11  Cl   6.211571   6.090132   5.308462   5.512037   7.491399
                    6          7          8          9         10
     6  H    0.000000
     7  Al   4.688889   0.000000
     8  Cl   5.409168   2.162141   0.000000
     9  Cl   4.860116   2.162037   3.560543   0.000000
    10  Cl   3.235880   2.174386   3.516511   3.539404   0.000000
    11  Cl   6.554100   2.162168   3.536722   3.535449   3.524532
                   11
    11  Cl   0.000000
 Stoichiometry    AlCl4H4NP(1-)
 Framework group  C1[X(AlCl4H4NP)]
 Deg. of freedom    27
 Full point group                 C1      NOp   1
 RotChk:  IX=0 Diff= 1.27D-15
 Largest Abelian subgroup         C1      NOp   1
 Largest concise Abelian subgroup C1      NOp   1
                         Standard orientation:                         
 ---------------------------------------------------------------------
 Center     Atomic      Atomic             Coordinates (Angstroms)
 Number     Number       Type             X           Y           Z
 ---------------------------------------------------------------------
      1         15           0        3.156060   -0.367592   -0.044806
      2          7           0        2.785036    1.158041    0.174513
      3          1           0        1.900831    1.403327   -0.278107
      4          1           0        2.332493   -1.418174    0.459427
      5          1           0        4.384319   -0.633042    0.601976
      6          1           0        3.418394   -0.904823   -1.348218
      7         13           0       -0.976644   -0.009273    0.018277
      8         17           0       -0.775989    2.135060    0.209138
      9         17           0       -0.279531   -1.009475    1.803784
     10         17           0        0.209358   -0.659623   -1.684191
     11         17           0       -3.046533   -0.520030   -0.341801
 ---------------------------------------------------------------------
 Rotational constants (GHZ):           1.0765977           0.4795846           0.4679064
 Leave Link  202 at Wed Jun 24 01:06:34 2026, MaxMem=  1879048192 cpu:               0.0 elap:               0.0
 (Enter /CH/g16/l601.exe)
 Copying SCF densities to generalized density rwf, IOpCl= 0 IROHF=0.

 **********************************************************************

            Population analysis using the SCF Density.

 **********************************************************************

 Orbital symmetries:
       Occupied  (A) (A) (A) (A) (A) (A) (A) (A) (A) (A) (A) (A)
                 (A) (A) (A) (A) (A) (A) (A) (A) (A) (A) (A) (A)
                 (A) (A) (A) (A) (A) (A) (A) (A) (A) (A) (A) (A)
                 (A) (A) (A) (A) (A) (A) (A) (A) (A) (A) (A) (A)
                 (A) (A) (A) (A) (A) (A)
       Virtual   (A) (A) (A) (A) (A) (A) (A) (A) (A) (A) (A) (A)
                 (A) (A) (A) (A) (A) (A) (A) (A) (A) (A) (A) (A)
                 (A) (A) (A) (A) (A) (A) (A) (A) (A) (A) (A) (A)
                 (A) (A) (A) (A) (A) (A) (A) (A) (A) (A) (A) (A)
                 (A) (A) (A) (A) (A) (A) (A) (A) (A) (A) (A) (A)
                 (A) (A) (A) (A) (A) (A) (A) (A) (A) (A) (A) (A)
                 (A) (A) (A) (A) (A) (A) (A) (A) (A) (A) (A) (A)
                 (A) (A) (A) (A)
 The electronic state is 1-A.
 Alpha  occ. eigenvalues -- -101.43956-101.43713-101.43652-101.43428 -77.09726
 Alpha  occ. eigenvalues --  -56.05206 -14.23890  -9.39427  -9.39192  -9.39138
 Alpha  occ. eigenvalues --   -9.38932  -7.15922  -7.15695  -7.15639  -7.15552
 Alpha  occ. eigenvalues --   -7.15520  -7.15437  -7.15302  -7.15289  -7.15252
 Alpha  occ. eigenvalues --   -7.15232  -7.15033  -7.15032  -6.58634  -4.75281
 Alpha  occ. eigenvalues --   -4.75193  -4.75092  -4.14494  -2.70117  -2.70103
 Alpha  occ. eigenvalues --   -2.70099  -0.79677  -0.76929  -0.75012  -0.74868
 Alpha  occ. eigenvalues --   -0.74697  -0.60142  -0.42914  -0.40161  -0.39141
 Alpha  occ. eigenvalues --   -0.37599  -0.33299  -0.33232  -0.33096  -0.28861
 Alpha  occ. eigenvalues --   -0.28663  -0.28143  -0.28110  -0.27946  -0.26190
 Alpha  occ. eigenvalues --   -0.26111  -0.25956  -0.24138  -0.20185
 Alpha virt. eigenvalues --    0.06273   0.06615   0.08313   0.09766   0.10369
 Alpha virt. eigenvalues --    0.12011   0.12267   0.12432   0.15490   0.20424
 Alpha virt. eigenvalues --    0.31263   0.31981   0.33785   0.34980   0.37628
 Alpha virt. eigenvalues --    0.40108   0.40545   0.43221   0.45835   0.49636
 Alpha virt. eigenvalues --    0.50389   0.51183   0.52286   0.54593   0.61611
 Alpha virt. eigenvalues --    0.62937   0.63310   0.66633   0.67780   0.70723
 Alpha virt. eigenvalues --    0.70957   0.75738   0.78932   0.80732   0.80866
 Alpha virt. eigenvalues --    0.80913   0.82767   0.82785   0.82869   0.82982
 Alpha virt. eigenvalues --    0.83174   0.83377   0.84175   0.85013   0.85902
 Alpha virt. eigenvalues --    0.86223   0.86306   0.87557   0.88491   0.89394
 Alpha virt. eigenvalues --    0.93373   0.94916   0.96366   0.97543   0.98441
 Alpha virt. eigenvalues --    1.00470   1.00801   1.00908   1.01228   1.02788
 Alpha virt. eigenvalues --    1.05523   1.09400   1.12710   1.13444   1.15378
 Alpha virt. eigenvalues --    1.15847   1.23115   1.36529   1.37826   1.38290
 Alpha virt. eigenvalues --    1.39637   1.43437   1.48030   1.50333   1.52644
 Alpha virt. eigenvalues --    1.66417   1.71034   1.71504   1.83006   2.06566
 Alpha virt. eigenvalues --    2.15877   2.19701   2.26109   2.42746   2.61117
 Alpha virt. eigenvalues --    2.62213   2.83634   3.30263
          Condensed to atoms (all electrons):
               1          2          3          4          5          6
     1  P   12.997192   0.523627  -0.046302   0.302997   0.365452   0.306579
     2  N    0.523627   6.817310   0.338648  -0.029986  -0.035782  -0.022515
     3  H   -0.046302   0.338648   0.582117   0.001206   0.005156  -0.007672
     4  H    0.302997  -0.029986   0.001206   0.855474  -0.030718  -0.057124
     5  H    0.365452  -0.035782   0.005156  -0.030718   0.741027  -0.032194
     6  H    0.306579  -0.022515  -0.007672  -0.057124  -0.032194   0.858369
     7  Al   0.007845   0.014725  -0.001609  -0.020860   0.000482   0.004587
     8  Cl  -0.000885  -0.003859   0.020350   0.000129  -0.000006  -0.000004
     9  Cl  -0.004447  -0.000679  -0.001404   0.016134   0.000017   0.000084
    10  Cl   0.010202  -0.005048   0.009606   0.002710   0.000399   0.000447
    11  Cl   0.000003   0.000000   0.000017  -0.000011   0.000000   0.000001
               7          8          9         10         11
     1  P    0.007845  -0.000885  -0.004447   0.010202   0.000003
     2  N    0.014725  -0.003859  -0.000679  -0.005048   0.000000
     3  H   -0.001609   0.020350  -0.001404   0.009606   0.000017
     4  H   -0.020860   0.000129   0.016134   0.002710  -0.000011
     5  H    0.000482  -0.000006   0.000017   0.000399   0.000000
     6  H    0.004587  -0.000004   0.000084   0.000447   0.000001
     7  Al  11.069615   0.321568   0.331916   0.299195   0.344001
     8  Cl   0.321568  17.089919  -0.013191  -0.013702  -0.013830
     9  Cl   0.331916  -0.013191  17.085323  -0.013230  -0.014260
    10  Cl   0.299195  -0.013702  -0.013230  17.129262  -0.013325
    11  Cl   0.344001  -0.013830  -0.014260  -0.013325  17.083509
 Mulliken charges:
               1
     1  P    0.537736
     2  N   -0.596441
     3  H    0.099886
     4  H   -0.039951
     5  H   -0.013833
     6  H   -0.050557
     7  Al   0.628535
     8  Cl  -0.386489
     9  Cl  -0.386262
    10  Cl  -0.406518
    11  Cl  -0.386106
 Sum of Mulliken charges =  -1.00000
 Mulliken charges with hydrogens summed into heavy atoms:
               1
     1  P    0.433394
     2  N   -0.496555
     7  Al   0.628535
     8  Cl  -0.386489
     9  Cl  -0.386262
    10  Cl  -0.406518
    11  Cl  -0.386106
 Electronic spatial extent (au):  <R**2>=           2568.2991
 Charge=             -1.0000 electrons
 Dipole moment (field-independent basis, Debye):
    X=              3.4077    Y=             -3.4383    Z=             -0.9886  Tot=              4.9408
 Quadrupole moment (field-independent basis, Debye-Ang):
   XX=           -100.3667   YY=            -96.8806   ZZ=            -93.9773
   XY=            -12.3864   XZ=             -2.4932   YZ=             -1.5416
 Traceless Quadrupole moment (field-independent basis, Debye-Ang):
   XX=             -3.2919   YY=              0.1943   ZZ=              3.0976
   XY=            -12.3864   XZ=             -2.4932   YZ=             -1.5416
 Octapole moment (field-independent basis, Debye-Ang**2):
  XXX=             36.3178  YYY=            -16.9015  ZZZ=             -1.5410  XYY=             -6.4487
  XXY=            -35.3074  XXZ=             -0.9838  XZZ=             -0.8649  YZZ=              5.5065
  YYZ=             -4.7368  XYZ=             -4.3373
 Hexadecapole moment (field-independent basis, Debye-Ang**3):
 XXXX=          -2192.1171 YYYY=           -695.7442 ZZZZ=           -616.3494 XXXY=           -148.6119
 XXXZ=            -20.0964 YYYX=            -14.9544 YYYZ=             -4.2967 ZZZX=              2.6165
 ZZZY=             -0.1065 XXYY=           -511.1065 XXZZ=           -455.8630 YYZZ=           -217.7224
 XXYZ=            -13.9290 YYXZ=             -3.3557 ZZXY=             -6.6360
 N-N= 8.024441136256D+02 E-N=-7.522569139810D+03  KE= 2.474797730318D+03
 No NMR shielding tensors so no spin-rotation constants.
 Leave Link  601 at Wed Jun 24 01:06:34 2026, MaxMem=  1879048192 cpu:               0.3 elap:               0.1
 (Enter /CH/g16/l9999.exe)
 Unable to Open any file for archive entry.
 1\1\GINC-NODE0-CHCLUSTER\FOpt\RB3LYP\def2SVP\Al1Cl4H4N1P1(1-)\LS\24-Ju
 n-2026\0\\#p B3LYP/def2SVP EmpiricalDispersion=GD3BJ opt SCRF=(SMD,Sol
 vent=Tetrahydrofuran) int=ultrafine\\phosphazene+AlCl4(-)\\-1,1\P,-0.5
 603977108,-0.7588681818,0.0642966592\N,-1.2255204914,0.5646385006,-0.5
 007318495\H,-2.1088516298,0.3718582957,-0.9797013333\H,-1.2023146196,-
 1.5522763512,1.0616353625\H,0.6512998403,-0.4185769367,0.7072583964\H,
 -0.1176247,-1.8140895441,-0.7998684489\Al,-4.6818693569,-1.2317603179,
 0.1024857417\Cl,-4.9014371053,0.7105415114,-0.8216932245\Cl,-3.9261487
 34,-1.0434325358,2.1193706036\Cl,-3.2867552148,-2.4021683162,-1.085687
 1128\Cl,-6.5907502777,-2.2467961239,0.1316052056\\Version=ES64L-G16Rev
 C.02\State=1-A\HF=-2481.458335\RMSD=9.092e-09\RMSF=3.279e-05\Dipole=1.
 593799,-1.0735802,0.2929698\Quadrupole=1.2710773,-3.7729368,2.5018595,
 -8.5505754,3.0368957,1.3496583\PG=C01 [X(Al1Cl4H4N1P1)]\\@
 The archive entry for this job was punched.


 THE PROGRESS OF RIVERS TO THE SEA IS NOT AS RAPID
 AS THAT OF MAN TO ERROR.
                                              -- VOLTAIRE
 Job cpu time:       0 days  0 hours 19 minutes  2.0 seconds.
 Elapsed time:       0 days  0 hours  3 minutes  4.5 seconds.
 File lengths (MBytes):  RWF=    112 Int=      0 D2E=      0 Chk=      5 Scr=      1
 Normal termination of Gaussian 16 at Wed Jun 24 01:06:34 2026.
