172
Lattice="12.836 0.0 0.0 6.418 11.116 0.0 0.0 0.0 55.0" Properties=species:S:1:pos:R:3:forces:R:3 charge=0 config_type=al_bare_nearsurface energy=-124880.762503 pbc="T T T"
Mg       0.00000000       1.85271700      16.00000000       0.00000000       0.00000000       0.00000000
Mg       3.20900000       1.85271700      16.00000000       0.00000000       0.00000000       0.00000000
Mg       6.41800000       1.85271700      16.00000000       0.00000000       0.00000000       0.00000000
Mg       9.62700000       1.85271700      16.00000000       0.00000000       0.00000000       0.00000000
Mg       1.60450000       4.63179300      16.00000000       0.00000000       0.00000000       0.00000000
Mg       4.81350000       4.63179300      16.00000000       0.00000000       0.00000000       0.00000000
Mg       8.02250000       4.63179300      16.00000000       0.00000000       0.00000000       0.00000000
Mg      11.23150000       4.63179300      16.00000000       0.00000000       0.00000000       0.00000000
Mg       3.20900000       7.41086800      16.00000000       0.00000000       0.00000000       0.00000000
Mg       6.41800000       7.41086800      16.00000000       0.00000000       0.00000000       0.00000000
Mg       9.62700000       7.41086800      16.00000000       0.00000000       0.00000000       0.00000000
Mg      12.83600000       7.41086800      16.00000000       0.00000000       0.00000000       0.00000000
Mg       4.81350000      10.18994400      16.00000000       0.00000000       0.00000000       0.00000000
Mg       8.02250000      10.18994400      16.00000000       0.00000000       0.00000000       0.00000000
Mg      11.23150000      10.18994400      16.00000000       0.00000000       0.00000000       0.00000000
Mg      14.44050000      10.18994400      16.00000000       0.00000000       0.00000000       0.00000000
Mg       0.00000000       0.00000000      18.60550000       0.00000000       0.00000000       0.00000000
Mg       3.20900000       0.00000000      18.60550000       0.00000000       0.00000000       0.00000000
Mg       6.41800000       0.00000000      18.60550000       0.00000000       0.00000000       0.00000000
Mg       9.62700000       0.00000000      18.60550000       0.00000000       0.00000000       0.00000000
Mg       1.60450000       2.77907600      18.60550000       0.00000000       0.00000000       0.00000000
Mg       4.81350000       2.77907600      18.60550000       0.00000000       0.00000000       0.00000000
Mg       8.02250000       2.77907600      18.60550000       0.00000000       0.00000000       0.00000000
Mg      11.23150000       2.77907600      18.60550000       0.00000000       0.00000000       0.00000000
Mg       3.20900000       5.55815100      18.60550000       0.00000000       0.00000000       0.00000000
Mg       6.41800000       5.55815100      18.60550000       0.00000000       0.00000000       0.00000000
Mg       9.62700000       5.55815100      18.60550000       0.00000000       0.00000000       0.00000000
Mg      12.83600000       5.55815100      18.60550000       0.00000000       0.00000000       0.00000000
Mg       4.81350000       8.33722700      18.60550000       0.00000000       0.00000000       0.00000000
Mg       8.02250000       8.33722700      18.60550000       0.00000000       0.00000000       0.00000000
Mg      11.23150000       8.33722700      18.60550000       0.00000000       0.00000000       0.00000000
Mg      14.44050000       8.33722700      18.60550000       0.00000000       0.00000000       0.00000000
Mg      -1.63565673       1.32894731      21.13694199       0.00000000       0.00000000       0.00000000
Mg       1.82832641       0.16298206      22.46052149       0.00000000       0.00000000       0.00000000
Mg       4.43030181       0.26769989      21.44957794       0.00000000       0.00000000       0.00000000
Mg       8.11142346       0.77312957      20.90194588       0.00000000       0.00000000       0.00000000
Mg      -0.24426921       3.62072177      21.86135973       0.00000000       0.00000000       0.00000000
Mg       3.09404540       2.93896108      21.80524767       0.00000000       0.00000000       0.00000000
Mg       6.52134854       1.59182397      23.47647249       0.00000000       0.00000000       0.00000000
Mg       6.30795819       3.35071631      21.47202163       0.00000000       0.00000000       0.00000000
Mg       1.77703248       5.98953289      21.04685082       0.00000000       0.00000000       0.00000000
Mg       4.16917479       7.05405354      21.29736923       0.00000000       0.00000000       0.00000000
Mg       9.33712534       4.26411954      21.51014390       0.00000000       0.00000000       0.00000000
Mg      11.24510997       6.73471124      20.93762793       0.00000000       0.00000000       0.00000000
Mg       3.18395033       9.75248723      21.07160998       0.00000000       0.00000000       0.00000000
Mg       6.18755095       9.31031793      20.86780074       0.00000000       0.00000000       0.00000000
Mg       8.96279501       8.70104459      21.36873081       0.00000000       0.00000000       0.00000000
Mg      12.93369484       9.42482371      21.77137060       0.00000000       0.00000000       0.00000000
Mg      -1.46630623      -0.98378789      23.73516760       0.00000000       0.00000000       0.00000000
Mg       1.42033034      -0.73710441      25.37993264       0.00000000       0.00000000       0.00000000
Mg       5.25735294      -0.89978848      24.34029769       0.00000000       0.00000000       0.00000000
Mg       8.52106789      -1.09816031      24.15545485       0.00000000       0.00000000       0.00000000
Mg      -0.20642827       1.49612919      24.42702497       0.00000000       0.00000000       0.00000000
Mg       3.66413011       2.05440865      24.81243503       0.00000000       0.00000000       0.00000000
Mg       7.91378062       1.97916293      26.26003472       0.00000000       0.00000000       0.00000000
Mg       9.46412679       2.38576573      23.32825590       0.00000000       0.00000000       0.00000000
Mg       1.67994812       4.55016414      23.82996795       0.00000000       0.00000000       0.00000000
Mg       4.86282903       5.26696710      24.24964481       0.00000000       0.00000000       0.00000000
Mg       7.87408533       4.82439194      24.38848238       0.00000000       0.00000000       0.00000000
Mg      10.93729305       4.72711925      23.90973299       0.00000000       0.00000000       0.00000000
Mg       2.93460366       7.43970087      23.82708440       0.00000000       0.00000000       0.00000000
Mg       6.52377012       7.82075211      23.46216890       0.00000000       0.00000000       0.00000000
Mg       9.67135359       7.79864442      24.25679102       0.00000000       0.00000000       0.00000000
Mg      12.83940448       7.22537190      23.57780887       0.00000000       0.00000000       0.00000000
Mg       7.97307509       8.35357238      28.99526060      -1.84089900      -0.53711400      -5.23159100
Mg      27.60746174       1.33039222      25.18746925      -4.44750400      -1.77627600       6.93808500
Cl       6.63541390       7.61565144      30.76480524      -0.03773000       0.09991000      -0.07728800
Cl       3.59329296      11.49752676      25.18827276      -0.03532000       1.01147900       1.23162200
Cl      -4.10815894       6.64079432      27.60192241       0.43981800      -0.76087700      -0.62175100
O        7.01158847      -1.26665216      25.88261183      -0.08128800      -0.20537500       0.60609000
C        6.99624611      -2.45334225      26.76535457       0.09687000      -1.69889000       0.00650800
C        5.84660410      -2.23807677      27.77148169       0.27226700      -0.71056100      -1.63209900
C        5.84513590      -0.73499742      27.94017532       0.94903700       0.95311300       1.47709800
C        6.86469357      -0.17777383      26.87064918      -0.28057600      -1.88580200       1.59537700
H        7.97259001      -2.57226719      27.23728109       0.29816100       0.55504900       0.35598900
H        6.94922854      -3.38438166      26.14241764      -0.47358700       0.72136100       0.05770700
H        6.05650084      -2.79970209      28.69420319      -0.23254900       0.08646100      -0.10023500
H        4.91833366      -2.57247868      27.27656296      -0.00190800      -0.19101600       0.38276500
H        6.28821270      -0.56735456      28.95348065      -0.37097400       0.51191100      -0.50671300
H        4.82585627      -0.27775069      27.92064093       0.69167700      -0.12022600      -0.29943500
H        7.90658192       0.02358868      27.24704747      -0.65111400      -0.18432800       0.33626700
H        6.38903286       0.58926968      26.33216942      -0.86893500       1.39647300      -0.89138300
O        4.51415263      10.24464382      35.04814313       0.28530600       0.11192000      -0.28230300
C        5.15547352      11.52130627      35.27832240      -2.33931900       0.44686700       0.78765000
C        6.43825510      11.51399791      34.51273851       1.06753100      -1.07637000      -0.89667700
C        6.85624266       9.95486907      34.64410711      -1.41926800       1.57276900      -0.19566900
C        5.57796252       9.24940943      35.07204913      -1.47362900      -0.94399900       0.24206800
H        5.29337569      11.63366813      36.38311730       0.43189400      -0.00790400      -0.42888800
H        4.35881583      12.29015581      35.03675990       0.94661700      -0.53262000      -0.24965200
H        7.16204410      12.15293221      34.99574369       0.58594400       0.15213600       0.59550700
H        6.74597106      14.02946085      34.00980154      -0.45732600      -0.69757600      -1.62478400
H        7.60830441       9.81146299      35.36463949       1.31964600      -0.02779600       1.05974300
H        7.18293656       9.55784321      33.71278766       0.51710000      -0.25547900      -1.07339500
H        5.62366194       8.84143560      36.15643985       0.05895300       0.14784400      -1.72980100
H        5.23693963       8.49133298      34.27376636       0.54127100       0.54305600       1.49030900
O        4.95692840       7.43124574      24.79078877      -1.78822300      -0.37670800       0.37960700
C        7.23848071       9.66040546      27.47422505       0.74127000       1.23853900       0.91330400
C        5.94425511       9.46650810      26.77282468       1.40573600      -0.17943700       0.17285000
C        5.17712517       8.23511202      27.12899909      -2.12286900       0.10124600      -0.36854000
C        4.23235953       7.99419012      25.91132252       0.49631600       1.23211300       1.75272200
H        7.24905928      10.66189345      27.97317843      -0.21450200      -0.43827900      -0.16879300
H        6.19708900       9.22796309      25.67098533      -0.68682100       0.42139100       0.16958500
H        6.76754131      11.52574657      26.28054219       0.80701700       0.62580800      -1.09330100
H        5.35670735      10.38924522      26.84303469      -0.38695100      -0.43834100      -0.41324800
H        4.55788451       8.41429137      28.03455003       0.36537600      -0.10103900      -0.18811300
H        5.71476151       7.32175673      27.24950479       1.00809400      -0.45013800       0.40270900
H        3.86433256       9.07568597      25.74883474       0.11810000      -1.43052400      -0.34249300
H        3.35665216       7.43107909      26.30382612       0.21508000      -0.37923600      -0.70344700
O        5.85876982      13.43645021      26.62867512      -1.63147500       2.15549100       0.07729500
C        6.56290386      13.52700319      27.89716819       0.48155000       1.40233100       0.29617600
C        5.62258013      14.26299933      28.87658161       2.90302800       1.57565200      -0.13269100
C        4.52335188      14.99374043      28.10942927       0.68402500      -2.19851000      -0.96171800
C        4.91754502      14.73426858      26.63167004       0.45406800      -1.30341200       1.04493700
H        7.42373583      14.20573109      27.73839199       0.13940100      -0.38988400      -0.12749200
H        6.94857545      12.56101398      28.28236015      -0.50823900       0.14477000      -0.48525300
H        6.29601105      14.86337691      29.58505570      -0.98360400      -0.16017700      -1.04210900
H        5.19064158      13.60156389      29.50874815      -1.54245800      -2.48103600       2.11428300
H        4.45901729      16.01206365      28.41169831      -0.48039100       1.04473900      -0.16927600
H        3.62027200      14.41058214      28.28677592      -0.55743300       0.39257200       0.29521900
H        5.43433178      15.64354169      26.33265287       0.62641300      -0.07061100      -0.82845700
H        4.10924369      14.39247795      25.95439819       0.16238500       0.43061400       0.30648000
O       10.62613632      15.77494155      27.32078959       0.64298600       0.77358200      -1.74701200
C       10.60529861      15.23087397      28.61452153       0.12250900      -2.27340800       2.59651600
C       12.06774489      15.20813901      29.21014963      -0.08443200      -0.46610700      -1.08273300
C       12.75925451      14.95447101      27.84287070       2.32695700       2.04690000       1.04920800
C       11.99672853      15.76868049      26.78034631       0.35590000      -2.50202200       0.16759400
H       10.25429796      14.14205664      28.64501504       0.29495000       0.91226300      -0.57432800
H        9.86724941      15.72505389      29.25986576       0.06568900       0.60037200      -0.24772100
H       12.35702433      14.36314301      29.94055959      -0.78418900       1.29203600      -0.89102100
H       12.42612382      16.19812890      29.54984815      -0.32358300      -0.21327600       0.31604300
H       12.67607031      13.93934048      27.56701424      -0.35745500      -1.84450900      -0.16049200
H       13.87843911      15.20475084      27.94108519      -1.36864700      -0.06606700      -0.40436000
H       12.18080310      15.05407261      25.76494469      -0.94427000       1.66986200       1.86769800
H       12.42615175      16.76762945      26.63772419      -0.24158300       0.09456100      -0.07307800
O        9.65764587       8.74675250      30.17027796      -0.46886600      -0.75909400      -1.07595300
C       10.36424436       7.55494999      30.77039458       0.33414400       0.43224700       0.03341000
C       11.40947327       8.24694324      31.72126169      -2.50719300      -0.43122400      -0.04324700
C       10.77276961       9.69512524      31.94405876       1.64023000      -1.03472500       1.25636300
C        9.48713011       9.73364177      31.18382971      -0.53841400       0.67913900       0.72143600
H       10.76180400       7.01642506      29.83735633      -0.57915200       0.44027300       1.48658800
H        9.63677135       6.94851489      31.40498897       0.56790900       0.52027100      -1.11150800
H       12.34846188       8.41726794      31.27662261       1.34254800      -0.15751100      -0.77958400
H       11.56071293       7.62284080      32.61364911      -0.12917900       0.29111200      -0.00414500
H       11.62605178      10.31528636      31.61326037      -0.86728500       0.60495800      -0.16867000
H       10.59753765       9.90997618      32.99799708       0.10302900       0.03122700       0.30348900
H        9.30513227      10.73165895      30.79812243       0.22173900       0.31193400      -1.09541500
H        8.53734754       9.60791957      31.76462308       0.70766300      -0.80768900       0.07828100
Al       9.22218155      -0.16017327      30.51857707       1.52877100       0.13603800       0.85594400
Cl      10.03785235      -0.12049875      28.38963322      -0.58204400       0.00318600       0.55691200
Cl       7.63495607       1.21812827      30.56708681      -1.39069800       0.77739100      -0.40877700
C       10.58802014       0.84018064      31.63813479       1.52871300      -1.07391300      -0.00479500
C       11.70251984       0.21322461      32.14490627       1.73304200       0.21933000       1.66395300
C       12.89656148       0.91407981      33.03244511      -1.74845100       0.04545800      -1.11754000
C       12.83163488       2.46952206      32.96854102       0.05773800       0.37143400       2.54916000
C       11.48081410       2.98150955      32.63214352      -0.82095300       1.97421000      -0.68110700
C       10.56597893       2.27061481      31.90510367      -0.56246300       1.40904100       0.43956200
H       11.95233248      -0.85813793      32.26091089      -0.89885400       0.17389000      -0.93280400
H       13.86451215       0.60479948      32.59836025      -0.20598400      -0.21017900       0.11030100
H       13.49599531       2.97899813      32.26807017       0.58095800      -0.32067200      -0.36438400
H       11.33236902       4.13054772      32.79051093       0.07379100      -2.14290700      -0.31745800
H        9.69679830       2.84940340      31.54674029       0.17958300      -0.32113500       0.20252600
C        8.67966211      -1.87698222      31.30732589       0.17406000      -1.98874400      -0.33056200
C        8.05217573      -1.95184634      32.55500380      -0.84681400       1.01818400       1.17534200
C        7.77808691      -3.11925239      33.30425978      -0.00295100      -0.00442700      -0.39000200
C        8.29360552      -4.31819649      32.85861726      -0.09428100      -0.45542000      -0.73048300
C        8.92122167      -4.32356876      31.57347450      -0.45307500      -2.34881200       1.03928900
C        9.02836721      -3.19029781      30.80177839       0.96617700       1.48014200      -0.07299400
H        7.71337725      -1.04150283      33.05810510       0.02642300       0.21070700      -0.27995400
H        7.07300249      -3.17057132      34.14373480       0.54381900       0.62235200       0.08723000
H        8.10738602      -5.21955159      33.47847260       0.34919100       0.29946000      -0.70521200
H        9.23436698      -5.34270794      31.22120482       0.01947000       1.09281000       0.00955400
H        9.63523931      -3.24516944      29.89237452      -0.33984000      -0.11789200      -0.14122200
172
Lattice="12.836 0.0 0.0 6.418 11.116 0.0 0.0 0.0 55.0" Properties=species:S:1:pos:R:3:forces:R:3 charge=0 config_type=al_bare_nearsurface energy=-124886.100586 pbc="T T T"
Mg       0.00000000       1.85271700      16.00000000       0.00000000       0.00000000       0.00000000
Mg       3.20900000       1.85271700      16.00000000       0.00000000       0.00000000       0.00000000
Mg       6.41800000       1.85271700      16.00000000       0.00000000       0.00000000       0.00000000
Mg       9.62700000       1.85271700      16.00000000       0.00000000       0.00000000       0.00000000
Mg       1.60450000       4.63179300      16.00000000       0.00000000       0.00000000       0.00000000
Mg       4.81350000       4.63179300      16.00000000       0.00000000       0.00000000       0.00000000
Mg       8.02250000       4.63179300      16.00000000       0.00000000       0.00000000       0.00000000
Mg      11.23150000       4.63179300      16.00000000       0.00000000       0.00000000       0.00000000
Mg       3.20900000       7.41086800      16.00000000       0.00000000       0.00000000       0.00000000
Mg       6.41800000       7.41086800      16.00000000       0.00000000       0.00000000       0.00000000
Mg       9.62700000       7.41086800      16.00000000       0.00000000       0.00000000       0.00000000
Mg      12.83600000       7.41086800      16.00000000       0.00000000       0.00000000       0.00000000
Mg       4.81350000      10.18994400      16.00000000       0.00000000       0.00000000       0.00000000
Mg       8.02250000      10.18994400      16.00000000       0.00000000       0.00000000       0.00000000
Mg      11.23150000      10.18994400      16.00000000       0.00000000       0.00000000       0.00000000
Mg      14.44050000      10.18994400      16.00000000       0.00000000       0.00000000       0.00000000
Mg       0.00000000       0.00000000      18.60550000       0.00000000       0.00000000       0.00000000
Mg       3.20900000       0.00000000      18.60550000       0.00000000       0.00000000       0.00000000
Mg       6.41800000       0.00000000      18.60550000       0.00000000       0.00000000       0.00000000
Mg       9.62700000       0.00000000      18.60550000       0.00000000       0.00000000       0.00000000
Mg       1.60450000       2.77907600      18.60550000       0.00000000       0.00000000       0.00000000
Mg       4.81350000       2.77907600      18.60550000       0.00000000       0.00000000       0.00000000
Mg       8.02250000       2.77907600      18.60550000       0.00000000       0.00000000       0.00000000
Mg      11.23150000       2.77907600      18.60550000       0.00000000       0.00000000       0.00000000
Mg       3.20900000       5.55815100      18.60550000       0.00000000       0.00000000       0.00000000
Mg       6.41800000       5.55815100      18.60550000       0.00000000       0.00000000       0.00000000
Mg       9.62700000       5.55815100      18.60550000       0.00000000       0.00000000       0.00000000
Mg      12.83600000       5.55815100      18.60550000       0.00000000       0.00000000       0.00000000
Mg       4.81350000       8.33722700      18.60550000       0.00000000       0.00000000       0.00000000
Mg       8.02250000       8.33722700      18.60550000       0.00000000       0.00000000       0.00000000
Mg      11.23150000       8.33722700      18.60550000       0.00000000       0.00000000       0.00000000
Mg      14.44050000       8.33722700      18.60550000       0.00000000       0.00000000       0.00000000
Mg      -1.63565673       1.32894731      21.13694199       0.00000000       0.00000000       0.00000000
Mg       1.82832641       0.16298206      22.46052149       0.00000000       0.00000000       0.00000000
Mg       4.43030181       0.26769989      21.44957794       0.00000000       0.00000000       0.00000000
Mg       8.11142346       0.77312957      20.90194588       0.00000000       0.00000000       0.00000000
Mg      -0.24426921       3.62072177      21.86135973       0.00000000       0.00000000       0.00000000
Mg       3.09404540       2.93896108      21.80524767       0.00000000       0.00000000       0.00000000
Mg       6.52134854       1.59182397      23.47647249       0.00000000       0.00000000       0.00000000
Mg       6.30795819       3.35071631      21.47202163       0.00000000       0.00000000       0.00000000
Mg       1.77703248       5.98953289      21.04685082       0.00000000       0.00000000       0.00000000
Mg       4.16917479       7.05405354      21.29736923       0.00000000       0.00000000       0.00000000
Mg       9.33712534       4.26411954      21.51014390       0.00000000       0.00000000       0.00000000
Mg      11.24510997       6.73471124      20.93762793       0.00000000       0.00000000       0.00000000
Mg       3.18395033       9.75248723      21.07160998       0.00000000       0.00000000       0.00000000
Mg       6.18755095       9.31031793      20.86780074       0.00000000       0.00000000       0.00000000
Mg       8.96279501       8.70104459      21.36873081       0.00000000       0.00000000       0.00000000
Mg      12.93369484       9.42482371      21.77137060       0.00000000       0.00000000       0.00000000
Mg      -1.46630623      -0.98378789      23.73516760       0.00000000       0.00000000       0.00000000
Mg       1.42033034      -0.73710441      25.37993264       0.00000000       0.00000000       0.00000000
Mg       5.25735294      -0.89978848      24.34029769       0.00000000       0.00000000       0.00000000
Mg       8.52106789      -1.09816031      24.15545485       0.00000000       0.00000000       0.00000000
Mg      -0.20642827       1.49612919      24.42702497       0.00000000       0.00000000       0.00000000
Mg       3.66413011       2.05440865      24.81243503       0.00000000       0.00000000       0.00000000
Mg       7.91378062       1.97916293      26.26003472       0.00000000       0.00000000       0.00000000
Mg       9.46412679       2.38576573      23.32825590       0.00000000       0.00000000       0.00000000
Mg       1.67994812       4.55016414      23.82996795       0.00000000       0.00000000       0.00000000
Mg       4.86282903       5.26696710      24.24964481       0.00000000       0.00000000       0.00000000
Mg       7.87408533       4.82439194      24.38848238       0.00000000       0.00000000       0.00000000
Mg      10.93729305       4.72711925      23.90973299       0.00000000       0.00000000       0.00000000
Mg       2.93460366       7.43970087      23.82708440       0.00000000       0.00000000       0.00000000
Mg       6.52377012       7.82075211      23.46216890       0.00000000       0.00000000       0.00000000
Mg       9.67135359       7.79864442      24.25679102       0.00000000       0.00000000       0.00000000
Mg      12.83940448       7.22537190      23.57780887       0.00000000       0.00000000       0.00000000
Mg       8.02831656       8.47916011      28.70912876       2.93362700      -0.18484600       5.58536500
Mg      27.26948683       2.09194823      25.63881602      -3.52853500       2.82429000       1.62046900
Cl       6.43645335       7.77350760      30.51222501       0.49616200       0.32844800      -0.59917500
Cl       3.59369494      12.02981543      25.33755428       0.23987200      -0.39857800       0.60214500
Cl      -3.72009995       6.51824019      27.86342016       0.03308100      -0.23097100      -0.49217400
O        7.43316771      -1.63494906      26.32974338       0.03136700      -0.82605800      -0.95933000
C        7.50630989      -2.96241771      27.05446923      -0.55227300       0.40654200      -0.76552800
C        6.18098598      -3.05075415      27.80287153      -1.63581300      -0.56124700      -1.48414700
C        5.69574807      -1.59452512      27.97744269      -0.92109100      -0.38986400      -1.54696700
C        6.74127354      -0.80128468      27.23881033       0.82779800       2.46689100       2.01636900
H        8.30673465      -2.89780010      27.80979650       0.25349000      -0.10953500      -0.52001200
H        7.65838226      -3.68847901      26.20322823       0.05147400       0.31050400       1.05673100
H        6.26005073      -3.55468270      28.73634791       0.57185400      -0.35443300       1.14505100
H        5.37817170      -3.65798459      27.28981107       0.74014900       0.55139000      -0.06636200
H        5.62412428      -1.33149517      28.99919429       0.17735800       0.51219700       1.29289700
H        4.67872124      -1.39070168      27.56024212       0.43110100      -0.52826800       0.04775300
H        7.49446137      -0.42858761      27.96743267      -0.09126000      -0.24741800       0.02263400
H        6.35579738       0.18877119      26.84238595       0.01845400      -1.17219800      -0.63742200
O        4.58216838       9.66592314      34.67361834       0.02325800       1.22222200      -0.09992500
C        5.09484459      11.03058112      34.94032514      -1.48343100      -0.50826900       1.22338800
C        6.43149105      11.11437826      34.25790646       1.47374600       1.20301900       0.82553600
C        6.80107984       9.67505124      33.89015064      -0.75721300      -0.94396300      -0.88215000
C        5.77514691       8.89779170      34.70260837       0.39348200      -1.04442800       2.63082700
H        5.28221100      11.05901321      36.01747684      -0.02193000       0.05131600       0.44361500
H        4.29526953      11.81205437      34.77824827       0.79857900      -0.82908400      -0.56093100
H        7.21884959      11.52959158      34.94553830      -0.64495900      -0.36854700      -0.03397200
H        6.88675957      13.77035738      34.21485257       0.43494100       0.54908300       1.79353000
H        7.83655993       9.35139611      34.05181004       0.01087500       0.23912800       0.19193700
H        6.55339332       9.49169266      32.81870763       0.39201300      -0.02886900       0.47013400
H        6.14010551       8.81308501      35.82002674      -0.42218200       0.18482300      -1.60612900
H        5.49849011       7.86192502      34.44726475       0.25745100       0.22396900      -0.53692200
O        4.68772664       7.88617902      24.73084177       0.16909500      -0.28172600      -0.09550900
C        7.55752865       9.86954319      27.40570700      -0.59885100       0.16927600      -1.07259900
C        6.23097174       9.60433901      26.71621770      -1.02530600       0.98051400       1.44530000
C        5.37443446       8.40500912      27.05614663      -0.68452100      -0.21586200       0.48697600
C        4.24376146       8.20024267      26.06099898       0.16244300      -0.67189600       0.76577400
H        7.52646931      10.86262358      27.85395389       0.06152600       0.03307900       0.10843900
H        6.20538396       9.42594411      25.62008097       0.34651500       0.16855500      -0.91250700
H        6.81163002      11.87850137      26.30115754       0.56470100       0.03649300      -1.65142800
H        5.62025417      10.52705352      26.80920508      -0.34888300      -0.45388100      -0.08030000
H        4.88528220       8.53965879      28.02897605       0.31080700       0.05253500       0.34175500
H        5.98162316       7.49530993      27.11818744       0.11652200      -0.21604100      -0.07059200
H        3.52521141       9.01194212      26.01287049       0.14734900       1.21280700       0.16917000
H        3.54480515       7.45835184      26.48586263       0.39637400      -0.74290700      -0.23207500
O        5.85971636      13.62864915      26.94973794      -0.50470900       0.68568800       0.23090600
C        6.61817468      13.28267468      28.16804673       0.40113900       0.64613500      -0.95918500