172
step=0 t=0.0fs Al-Mg=3.73 nCl=2 qAl=0.453
 Mg         0.0000000000        1.8527170000       16.0000000000
 Mg         3.2090000000        1.8527170000       16.0000000000
 Mg         6.4180000000        1.8527170000       16.0000000000
 Mg         9.6270000000        1.8527170000       16.0000000000
 Mg         1.6045000000        4.6317930000       16.0000000000
 Mg         4.8135000000        4.6317930000       16.0000000000
 Mg         8.0225000000        4.6317930000       16.0000000000
 Mg        11.2315000000        4.6317930000       16.0000000000
 Mg         3.2090000000        7.4108680000       16.0000000000
 Mg         6.4180000000        7.4108680000       16.0000000000
 Mg         9.6270000000        7.4108680000       16.0000000000
 Mg        12.8360000000        7.4108680000       16.0000000000
 Mg         4.8135000000       10.1899440000       16.0000000000
 Mg         8.0225000000       10.1899440000       16.0000000000
 Mg        11.2315000000       10.1899440000       16.0000000000
 Mg        14.4405000000       10.1899440000       16.0000000000
 Mg         0.0000000000        0.0000000000       18.6055000000
 Mg         3.2090000000        0.0000000000       18.6055000000
 Mg         6.4180000000        0.0000000000       18.6055000000
 Mg         9.6270000000        0.0000000000       18.6055000000
 Mg         1.6045000000        2.7790760000       18.6055000000
 Mg         4.8135000000        2.7790760000       18.6055000000
 Mg         8.0225000000        2.7790760000       18.6055000000
 Mg        11.2315000000        2.7790760000       18.6055000000
 Mg         3.2090000000        5.5581510000       18.6055000000
 Mg         6.4180000000        5.5581510000       18.6055000000
 Mg         9.6270000000        5.5581510000       18.6055000000
 Mg        12.8360000000        5.5581510000       18.6055000000
 Mg         4.8135000000        8.3372270000       18.6055000000
 Mg         8.0225000000        8.3372270000       18.6055000000
 Mg        11.2315000000        8.3372270000       18.6055000000
 Mg        14.4405000000        8.3372270000       18.6055000000
 Mg        -1.6356567300        1.3289473100       21.1369419900
 Mg         1.8283264100        0.1629820600       22.4605214900
 Mg         4.4303018100        0.2676998900       21.4495779400
 Mg         8.1114234600        0.7731295700       20.9019458800
 Mg        -0.2442692100        3.6207217700       21.8613597300
 Mg         3.0940454000        2.9389610800       21.8052476700
 Mg         6.5213485400        1.5918239700       23.4764724900
 Mg         6.3079581900        3.3507163100       21.4720216300
 Mg         1.7770324800        5.9895328900       21.0468508200
 Mg         4.1691747900        7.0540535400       21.2973692300
 Mg         9.3371253400        4.2641195400       21.5101439000
 Mg        11.2451099700        6.7347112400       20.9376279300
 Mg         3.1839503300        9.7524872300       21.0716099800
 Mg         6.1875509500        9.3103179300       20.8678007400
 Mg         8.9627950100        8.7010445900       21.3687308100
 Mg        12.9336948400        9.4248237100       21.7713706000
 Mg        -1.4663062300       -0.9837878900       23.7351676000
 Mg         1.4203303400       -0.7371044100       25.3799326400
 Mg         5.2573529400       -0.8997884800       24.3402976900
 Mg         8.5210678900       -1.0981603100       24.1554548500
 Mg        -0.2064282700        1.4961291900       24.4270249700
 Mg         3.6641301100        2.0544086500       24.8124350300
 Mg         7.9137806200        1.9791629300       26.2600347200
 Mg         9.4641267900        2.3857657300       23.3282559000
 Mg         1.6799481200        4.5501641400       23.8299679500
 Mg         4.8628290300        5.2669671000       24.2496448100
 Mg         7.8740853300        4.8243919400       24.3884823800
 Mg        10.9372930500        4.7271192500       23.9097329900
 Mg         2.9346036600        7.4397008700       23.8270844000
 Mg         6.5237701200        7.8207521100       23.4621689000
 Mg         9.6713535900        7.7986444200       24.2567910200
 Mg        12.8394044800        7.2253719000       23.5778088700
 Mg         5.9393336500       10.6474045300       27.9265144500
 Mg        19.7837019600        3.2416420500       25.2841380100
 Cl         6.9221757400        9.7142602000       29.8567191300
 Cl         4.0027008500       11.8725948600       25.5806120900
 Cl        -3.7201255900        3.8245045800       26.7766998100
  O         8.1750393300       -2.1772164400       26.1886417300
  C         9.1835009700       -3.0524734000       26.8978379300
  C         8.3412310500       -4.1578936900       27.4403081100
  C         7.1044847600       -3.4196790000       27.8551697800
  C         6.8642705100       -2.5088069300       26.6186836600
  H         9.6456882900       -2.4794173000       27.6551547200
  H         9.8890247700       -3.3079481100       26.1167799600
  H         8.7993885100       -4.7998928400       28.2035227200
  H         8.0888501400       -4.8981965700       26.6580517700
  H         7.2239041500       -2.9689432100       28.8111235300
  H         6.1609068900       -4.1233752700       27.8791467500
  H         6.3544531500       -1.5486300500       26.7936960000
  H         6.3455602200       -3.1189361300       25.7919888000
  O        -0.7066405800       13.2677270000       34.6138985000
  C        -0.0376287000       13.8021369100       33.3642374000
  C         1.4216035800       14.0691007900       33.7817575800
  C         1.6281428400       12.7597896400       34.4733069500
  C         0.2423844300       12.2215100600       34.9668762200
  H        -0.5710159700       14.7222483100       33.1719932400
  H        -0.0839046000       13.0452189600       32.6168011000
  H         1.4259340800       14.8771940000       34.5815840400
  H         1.9548384700       16.6036408600       32.6311093000
  H         2.4293163400       12.8556706800       35.1364791400
  H         1.9894067600       11.9516161000       33.7735377200
  H         0.1874948600       12.0254560800       36.0733886800
  H        -0.0378404000       11.2531657100       34.5851205800
  O         6.3873906200        5.2890001100       25.8484380200
  C         6.2580064700        9.3422380200       26.2507302600
  C         7.0199908600        8.0966867200       26.7763384300
  C         6.2182016300        7.0347485500       27.4625733200
  C         5.5271930100        6.1498832700       26.5074926400
  H         5.2531977500        8.9905406700       26.0092862500
  H         7.8832924900        8.3710758900       27.4206262100
  H        22.7783668000       55.2186918800       71.8320258000
  H         7.4454380100        7.5160971900       25.8772276800
  H         5.4521219700        7.3255516600       28.2133122300
  H         6.8648016500        6.4152337800       28.0364676000
  H         5.0007236400        6.7928745900       25.8371697100
  H         4.6240260300        5.6549687600       26.9776235600
  O         6.2832148400       12.6610579800       28.0974250100
  C         6.2751726300       13.7896643200       27.2262062400
  C         6.6231997200       15.0167024200       28.1303871300
  C         6.4793917500       14.5434891100       29.5865860500
  C         5.8700938300       13.1935909800       29.4160598700
  H         5.3331735600       13.9149991400       26.7220562000
  H         7.0905809500       13.6712404300       26.4455653200
  H         5.8971275800       15.7898984800       27.9087851000
  H         7.6052634400       15.4425712000       27.7868248000
  H         5.8470687300       15.2290779300       30.1680067700
  H         7.3942879200       14.6375118400       30.1633764500
  H         4.7505305500       13.2223760300       29.5071914300
  H         6.2262495200       12.5059657000       30.2345796900
  O         9.5359961700       14.0663047400       27.4833009400
  C         9.6663712700       12.5973728200       27.7965822500
  C         9.8634833400       12.4955633900       29.2966734600
  C        10.1592938500       13.9390416900       29.7427100100
  C        10.2779267900       14.7828731300       28.4588449300
  H        10.4622293200       12.2072443900       27.1189900000
  H         8.6595618300       12.2146990600       27.5650428900
  H        10.7229317400       11.8096925200       29.4949021300
  H         9.0014175800       11.9658136200       29.7364744100
  H        11.0038118300       13.8537135600       30.3726540500
  H         9.3256095600       14.3013050600       30.3404884100
  H        11.3524097100       14.8822695000       28.1929842600
  H         9.8440333600       15.7614063700       28.5962793700
  O        10.1512443600        8.3221480000       27.6665740500
  C        10.0414911600        6.8885367300       27.4499992800
  C         9.6640016000        6.2926231200       28.7869759000
  C        10.3459330200        7.2766783900       29.8632326200
  C        10.4353474200        8.6344846200       29.0547754200
  H        10.9406185700        6.4748272900       26.9351331100
  H         9.2202403600        6.7767566200       26.6975170600
  H        10.0901205500        5.2814648900       28.9752316100
  H         8.6270176400        6.2935486100       29.0308439300
  H        11.3526168100        6.9151326600       30.0810259100
  H         9.6586559600        7.3731853900       30.7175436400
  H        11.4271896000        9.1531936900       29.3222232200
  H         9.6075094800        9.2854884800       29.3358460100
 Al         8.0745891900        0.4512926400       29.6603285400
 Cl         9.9379161300       -0.0199870400       28.5567496200
 Cl         6.5558134900        0.6209980900       27.9373226300
  C         8.0812113400        2.1655752400       30.5077759700
  C         8.9144343200        2.2007538400       31.6075509100
  C         8.9226926900        3.3036023100       32.6093361500
  C         8.6485124600        4.6487340100       31.9317960400
  C         7.6030300300        4.5756448300       30.8517845900
  C         7.3194174500        3.4046616300       30.2829839800
  H         9.5671261500        1.4257451100       31.9449418800
  H         9.9214141800        3.3029070000       33.1073632100
  H         9.5557677800        5.0156413500       31.4754258100
  H         6.9858054900        5.4797767800       30.7476688800
  H         6.6325935900        3.2927732900       29.4629358700
  C         7.5827959500       -0.9476468700       30.8986981500
  C         6.3750386700       -0.9140824200       31.4884134100
  C         5.9170579800       -1.8968841500       32.4660350700
  C         6.8011543700       -2.9174416600       32.7614581900
  C         8.0112898400       -2.9974155300       32.0838928400
  C         8.4827984300       -1.9659651000       31.2712813800
  H         5.7127198700       -0.0844503000       31.3729755600
  H         5.0177788300       -1.6872514800       32.9627695000
  H         6.3803654200       -3.6123099400       33.5534119400
  H         8.8026857500       -3.6997472500       32.3032730100
  H         9.5184979200       -1.9773530400       30.8178070800
172
step=28 t=14.0fs Al-Mg=3.70 nCl=2 qAl=0.441
 Mg         0.0000000000        1.8527170000       16.0000000000
 Mg         3.2090000000        1.8527170000       16.0000000000
 Mg         6.4180000000        1.8527170000       16.0000000000
 Mg         9.6270000000        1.8527170000       16.0000000000
 Mg         1.6045000000        4.6317930000       16.0000000000
 Mg         4.8135000000        4.6317930000       16.0000000000
 Mg         8.0225000000        4.6317930000       16.0000000000
 Mg        11.2315000000        4.6317930000       16.0000000000
 Mg         3.2090000000        7.4108680000       16.0000000000
 Mg         6.4180000000        7.4108680000       16.0000000000
 Mg         9.6270000000        7.4108680000       16.0000000000
 Mg        12.8360000000        7.4108680000       16.0000000000
 Mg         4.8135000000       10.1899440000       16.0000000000
 Mg         8.0225000000       10.1899440000       16.0000000000
 Mg        11.2315000000       10.1899440000       16.0000000000
 Mg        14.4405000000       10.1899440000       16.0000000000
 Mg         0.0000000000        0.0000000000       18.6055000000
 Mg         3.2090000000        0.0000000000       18.6055000000
 Mg         6.4180000000        0.0000000000       18.6055000000
 Mg         9.6270000000        0.0000000000       18.6055000000
 Mg         1.6045000000        2.7790760000       18.6055000000
 Mg         4.8135000000        2.7790760000       18.6055000000
 Mg         8.0225000000        2.7790760000       18.6055000000
 Mg        11.2315000000        2.7790760000       18.6055000000
 Mg         3.2090000000        5.5581510000       18.6055000000
 Mg         6.4180000000        5.5581510000       18.6055000000
 Mg         9.6270000000        5.5581510000       18.6055000000
 Mg        12.8360000000        5.5581510000       18.6055000000
 Mg         4.8135000000        8.3372270000       18.6055000000
 Mg         8.0225000000        8.3372270000       18.6055000000
 Mg        11.2315000000        8.3372270000       18.6055000000
 Mg        14.4405000000        8.3372270000       18.6055000000
 Mg        -1.5349468650        1.2752289734       21.1338599024
 Mg         1.8109370401        0.1886652751       22.4559211340
 Mg         4.4439220074        0.2166658471       21.4504498039
 Mg         8.1093787919        0.7163354478       20.9041326688
 Mg        -0.1310976275        3.6043211646       21.8697404229
 Mg         3.1098342390        2.8858950993       21.7777960952
 Mg         6.5268877639        1.5032529472       23.5283228651
 Mg         6.2481081216        3.3099773411       21.4597097503
 Mg         1.7023307495        6.0225246093       21.0449845537
 Mg         4.1408833257        7.0792284359       21.2914943945
 Mg         9.3238842993        4.3643239856       21.3989302276
 Mg        11.2620250440        6.7066063733       21.0408552446
 Mg         3.1949766168        9.7547586120       21.0693171316
 Mg         6.2059369610        9.3420273061       20.9527176705
 Mg         8.9669673709        8.7566353373       21.3786025623
 Mg        13.0230815334        9.4213772339       21.7746386214
 Mg        -1.4556237447       -1.0307720598       23.7385840675
 Mg         1.4357515602       -0.7565786794       25.3753862741
 Mg         5.2687365659       -0.8929705356       24.3364954136
 Mg         8.5206371830       -1.0470826557       24.1537609215
 Mg        -0.2315357009        1.5050867584       24.3965581478
 Mg         3.6286809002        2.0380271472       24.8032650333
 Mg         8.1285335827        1.8106535952       26.2675179135
 Mg         9.3182471261        2.3410347793       23.3321243340
 Mg         1.6609765874        4.5934804734       23.8465405646
 Mg         4.8621209908        5.2494092692       24.2150812096
 Mg         7.9970864933        4.9577596389       24.3940109718
 Mg        10.9217210410        4.7497439207       23.9065383402
 Mg         2.8563716759        7.4256835872       23.8271462211
 Mg         6.5220063710        7.8465373755       23.3918922585
 Mg         9.7010290711        7.8573225136       24.2568230816
 Mg        12.7980393617        7.2750387203       23.5823808680
 Mg         6.0468513309       10.6777091410       27.9278137512
 Mg        19.5508790807        3.2861453038       25.2905587351
 Cl         6.9925704277        9.7449186615       29.8344340574
 Cl         3.9456364894       11.8279296300       25.5872569934
 Cl        -3.7716197587        3.8745417038       26.7773039823
  O         8.2000702521       -2.0805683670       26.2308446617
  C         9.1452315583       -3.0478553649       26.8810346334
  C         8.2700025029       -4.2225165564       27.3875339680
  C         7.0228939794       -3.4097197031       27.7863996711
  C         6.8305477390       -2.5767339824       26.5985778859
  H         9.6752571574       -2.4803182161       27.6489985013
  H         9.9063582418       -3.3830527109       26.1516189628
  H         8.7011941534       -4.7323146380       28.2740899014
  H         8.0547414011       -4.8716820902       26.4916948217
  H         7.2771732646       -2.7087954268       28.5678388286
  H         6.2138523342       -3.9834953833       28.1010861279
  H         6.0989743298       -1.7574635286       26.7776569474
  H         6.4272285316       -3.1890736998       25.7904870839
  O        -0.6483983132       13.2626515285       34.5756417461
  C        -0.0220902747       13.8424142329       33.4321175267
  C         1.4501677177       14.1335213531       33.8314374658
  C         1.6736483586       12.6866317955       34.5039310842
  C         0.2207321630       12.2047315337       34.9195206887
  H        -0.6926272165       14.5825970360       32.9797715108
  H         0.1154386131       13.0643632200       32.6331234825
  H         1.5228146498       14.9914557222       34.5255333803
  H         2.0929783112       16.5062126375       32.7357324397
  H         2.2808094186       12.6479662050       35.4300435437
  H         2.0620814933       12.1159129617       33.7077696855
  H         0.1047399680       12.0192411515       36.0181397114
  H        -0.0302173730       11.3658234438       34.2688781498
  O         6.4512575022        5.2044443957       25.8363560300
  C         6.2257810995        9.3340193278       26.2149903240
  C         7.0015343800        8.1095221152       26.7670034730
  C         6.2083864237        7.0497992966       27.6319300159
  C         5.5172256215        6.1220368169       26.5728873682
  H         5.1800922245        9.2230164701       25.9820435817
  H         7.8840881953        8.4391572504       27.3082395713
  H        22.5250253268       55.5863401207       71.6462125105
  H         7.4056947404        7.4519325563       25.9126854548
  H         5.5616236847        7.5870707450       28.3132564882
  H         6.8808171277        6.4025178232       28.1351888950
  H         5.0780581973        6.8031317151       25.8259719551
  H         4.7869419774        5.4252174344       27.0863262199
  O         6.2063949706       12.6516899135       28.2266193033
  C         6.2327881798       13.8067143920       27.1902692242
  C         6.5818318873       15.0405606185       28.0109438135
  C         6.4677851023       14.6786899217       29.5337546004
  C         5.9012009573       13.2041570845       29.5525777999
  H         5.1775720356       13.8447167285       26.7237803963
  H         6.9978030450       13.4828909443       26.4752206383
  H         5.8750077391       15.8934772511       27.7584238410
  H         7.5821011641       15.3205799162       27.8489702357
  H         5.7371936905       15.3588638622       30.0354450396
  H         7.4611523403       14.6115122820       29.9789457393
  H         4.8423076047       13.1809645030       29.6894405791
  H         6.3459678780       12.5043987414       30.2279465638
  O         9.4957882175       14.0485517390       27.4283579498
  C         9.5839376716       12.6547533731       27.7409282959
  C         9.9082756970       12.4909378598       29.2353997835
  C        10.1384637590       13.9441132362       29.7082638128
  C        10.2888788601       14.7580255899       28.4186229417
  H        10.3874510989       12.1973736413       27.2321556430
  H         8.7174581124       12.1629989376       27.3302973269
  H        10.7859152581       11.8626431345       29.4049695426
  H         9.1108016253       12.0825738980       29.8329919603
  H        11.0676502641       14.1914425033       30.2653107302
  H         9.2803660229       14.3099122508       30.2895848462
  H        11.3018162587       14.7932550704       28.0676252184
  H         9.9256750188       15.7603482421       28.4519710695
  O        10.2168041161        8.2686938519       27.6543158161
  C        10.0513951466        6.8857198320       27.4447382451
  C         9.8713641528        6.2846828621       28.8657387851
  C        10.2374034120        7.3050985819       29.8936904671
  C        10.3863993320        8.5596575956       29.1111122080
  H        10.8861896427        6.4666659707       26.9531485587
  H         9.1725626662        6.6542650855       26.8458390615
  H        10.3350394279        5.2673863293       28.9207864299
  H         8.8000022917        6.0950798564       28.8710994689
  H        11.1621916108        7.0543706247       30.5171535166
  H         9.4811726578        7.3818150888       30.7330478435
  H        11.3998443052        8.9920023390       29.1138197838
  H         9.6231917521        9.4081993403       29.4351478595
 Al         8.0970883177        0.4062543649       29.6926424364
 Cl         9.9249550439       -0.0691217493       28.5520065104
 Cl         6.5921515777        0.6457155178       27.9579795211
  C         8.1612140532        2.2347206993       30.4903523490
  C         8.9587148735        2.1490956642       31.5894156824
  C         8.9005904536        3.2449043814       32.6874821592
  C         8.6586507686        4.5923918643       31.9560231680
  C         7.5609788621        4.5637456289       30.9120960712
  C         7.3645981295        3.3913077924       30.1463773698
  H         9.4675856800        1.2213488221       31.7096450339
  H         9.9017476540        3.3741143471       33.2296441827
  H         9.6007506841        4.8650415326       31.4678279238
  H         7.1160229836        5.4793433118       30.5503395001
  H         6.6311802001        3.5079237632       29.3234745152
  C         7.5661132639       -0.9548993374       30.8926822076
  C         6.2472595903       -0.8720255582       31.5471235637
  C         5.9284582115       -1.8291774449       32.4326028867
  C         6.8246798652       -2.8772801803       32.7471743598
  C         8.1136998851       -2.9604848116       32.1702126186
  C         8.4651770466       -1.9869925400       31.2459485762
  H         5.5739373175       -0.0866202614       31.2156860173
  H         4.9588583030       -1.9003719657       32.9738336730
  H         6.7041960650       -3.6324619770       33.4792566596
  H         8.6746342429       -3.8404964921       32.4763123076
  H         9.5315535400       -1.9548308602       30.9056654906
172
step=56 t=28.0fs Al-Mg=3.67 nCl=2 qAl=0.438
 Mg         0.0000000000        1.8527170000       16.0000000000
 Mg         3.2090000000        1.8527170000       16.0000000000
 Mg         6.4180000000        1.8527170000       16.0000000000
 Mg         9.6270000000        1.8527170000       16.0000000000
 Mg         1.6045000000        4.6317930000       16.0000000000
 Mg         4.8135000000        4.6317930000       16.0000000000
 Mg         8.0225000000        4.6317930000       16.0000000000
 Mg        11.2315000000        4.6317930000       16.0000000000
 Mg         3.2090000000        7.4108680000       16.0000000000
 Mg         6.4180000000        7.4108680000       16.0000000000
 Mg         9.6270000000        7.4108680000       16.0000000000
 Mg        12.8360000000        7.4108680000       16.0000000000
 Mg         4.8135000000       10.1899440000       16.0000000000
 Mg         8.0225000000       10.1899440000       16.0000000000
 Mg        11.2315000000       10.1899440000       16.0000000000
 Mg        14.4405000000       10.1899440000       16.0000000000
 Mg         0.0000000000        0.0000000000       18.6055000000
 Mg         3.2090000000        0.0000000000       18.6055000000
 Mg         6.4180000000        0.0000000000       18.6055000000
 Mg         9.6270000000        0.0000000000       18.6055000000
 Mg         1.6045000000        2.7790760000       18.6055000000
 Mg         4.8135000000        2.7790760000       18.6055000000
 Mg         8.0225000000        2.7790760000       18.6055000000
 Mg        11.2315000000        2.7790760000       18.6055000000
 Mg         3.2090000000        5.5581510000       18.6055000000
 Mg         6.4180000000        5.5581510000       18.6055000000
 Mg         9.6270000000        5.5581510000       18.6055000000
 Mg        12.8360000000        5.5581510000       18.6055000000
 Mg         4.8135000000        8.3372270000       18.6055000000
 Mg         8.0225000000        8.3372270000       18.6055000000
 Mg        11.2315000000        8.3372270000       18.6055000000
 Mg        14.4405000000        8.3372270000       18.6055000000
 Mg        -1.4313768199        1.2161767591       21.1321926687
 Mg         1.8270047944        0.1657402832       22.4562465900
 Mg         4.4292601231        0.2445493748       21.4532599440
 Mg         8.0291009101        0.7689713685       20.9045577532
 Mg        -0.0441425196        3.5631736093       21.8706600001
 Mg         3.1060799063        2.8568320357       21.7813380957
 Mg         6.5090811606        1.3736630234       23.5244928185
 Mg         6.2359311648        3.3445441700       21.4703965039
 Mg         1.6179309772        6.0948516385       21.0521343062
 Mg         4.2237257747        7.0327543552       21.2948906372
 Mg         9.3225865805        4.4878002202       21.2689773025
 Mg        11.2384718908        6.7284132000       21.1035853037
 Mg         3.1947107777        9.7523572806       21.0681140047
 Mg         6.1850414668        9.4023043797       21.0075320664
 Mg         8.9787332208        8.7250186145       21.3836535925
 Mg        13.0883879609        9.3616877400       21.7772856125
 Mg        -1.4633954529       -1.0898279608       23.7462051014
 Mg         1.4333117150       -0.7549898507       25.3750289534
 Mg         5.2770930456       -0.8757517760       24.3322696766
 Mg         8.5118007156       -0.9782643841       24.1483885847
 Mg        -0.2176207905        1.4932335589       24.2674177833
 Mg         3.6335742893        2.0633259090       24.8224202315
 Mg         8.4142166625        1.5255290462       26.2656545224
 Mg         9.2067608181        2.2636219212       23.3335938426
 Mg         1.6742433986        4.6219667261       23.8215175757
 Mg         4.8904477943        5.2137054866       24.2549601744
 Mg         8.1844714810        5.2672825861       24.3975607915
 Mg        10.9391461123        4.7377672678       23.9043396875
 Mg         2.8552130701        7.3768194847       23.8235302732
 Mg         6.5246526874        7.7830644321       23.4523440254
 Mg         9.6818776552        7.8804929891       24.2577205259
 Mg        12.7520122998        7.2532570763       23.5829366710
 Mg         6.0893434083       10.6316718277       27.9291812759
 Mg        19.0918685303        3.3592415043       25.2906038000
 Cl         7.0467723853        9.7760716748       29.8358406193
 Cl         3.9071823439       11.7904280826       25.6004198588
 Cl        -3.7869064903        3.9269820378       26.8073834251
  O         8.1718162447       -2.0656511779       26.3150549671
  C         9.0875545748       -3.0387922407       26.8577585519
  C         8.2580214128       -4.1772056326       27.3700382819
  C         6.9960638762       -3.4351493007       27.8339740226
  C         6.8179974125       -2.5559029072       26.5436017234
  H         9.6436938416       -2.5968369273       27.7449555678
  H         9.8325445622       -3.2708636789       26.0701589853
  H         8.8325036725       -4.6847312106       28.1564494201
  H         8.0312789291       -4.9642808703       26.6388042675
  H         7.2339181863       -2.8091529813       28.7424485245
  H         6.1296326105       -4.0406738303       28.0436035013
  H         6.2211223953       -1.6522681611       26.6033781843
  H         6.4795690464       -3.1502485572       25.7213967157
  O        -0.6389949569       13.2926251293       34.5486336575
  C         0.0052546972       13.8981502737       33.3842776380
  C         1.4433034817       14.0349430263       33.8595872336
  C         1.6946039109       12.6877313926       34.5752898367
  C         0.2785447004       12.1740261843       34.8633408641
  H        -0.4424097123       14.8947801157       33.2023252128
  H        -0.1462382958       13.2532177317       32.4563149746
  H         1.4879833142       14.8295295034       34.5993697436
  H         2.0104527333       16.4774198358       32.6637136020
  H         2.4256705329       12.7960481108       35.4330041272
  H         2.1688314966       11.9573358431       33.9031067860
  H         0.1281522176       11.9410968852       35.9095297840
  H         0.0337057920       11.2415220782       34.2767701090
  O         6.4187347463        5.2197646436       25.8332212021
  C         6.2195469665        9.3118691759       26.2602883207
  C         6.9599613385        8.0813237974       26.7860119322
  C         6.2588988256        7.0232743079       27.6256797511
  C         5.5785159124        6.0512858124       26.6748139133
  H         5.1374307790        9.1300626300       26.0735894569
  H         7.8083132536        8.4834311117       27.3753400316
  H        22.3385032023       55.5970320884       70.7781105129
  H         7.5404655730        7.5773999038       26.0001048992
  H         5.4294343595        7.4745098745       28.2009935714
  H         6.9270185976        6.5919900690       28.4440507034
  H         5.0283944801        6.7709729086       25.9395836135
  H         4.7494614370        5.4705655471       27.0251743509
  O         6.1665837129       12.7340096273       28.2890000874
  C         6.1746450517       13.7534922414       27.3101704785
  C         6.5363596039       15.0686465316       27.9557696393
  C         6.4253508528       14.7001803922       29.4593357711
  C         5.9244243449       13.2855807092       29.6193560457
  H         5.1912524500       13.8074640623       26.8259438953
  H         6.9501660485       13.4855218605       26.5905642614