172
Lattice="12.836 0 0 6.418 11.116 0 0 0 55" Properties=species:S:1:pos:R:3:forces:R:3 energy=-124797.414200 charge=1 scf_converged=T pbc="T T T" config_type=bias_bare_qp1_d2.5 net_charge=1.0
Mg 0.000000 1.852717 16.000000 0.000000 0.000000 0.000000
Mg 3.209000 1.852717 16.000000 0.000000 0.000000 0.000000
Mg 6.418000 1.852717 16.000000 0.000000 0.000000 0.000000
Mg 9.627000 1.852717 16.000000 0.000000 0.000000 0.000000
Mg 1.604500 4.631793 16.000000 0.000000 0.000000 0.000000
Mg 4.813500 4.631793 16.000000 0.000000 0.000000 0.000000
Mg 8.022500 4.631793 16.000000 0.000000 0.000000 0.000000
Mg 11.231500 4.631793 16.000000 0.000000 0.000000 0.000000
Mg 3.209000 7.410868 16.000000 0.000000 0.000000 0.000000
Mg 6.418000 7.410868 16.000000 0.000000 0.000000 0.000000
Mg 9.627000 7.410868 16.000000 0.000000 0.000000 0.000000
Mg 12.836000 7.410868 16.000000 0.000000 0.000000 0.000000
Mg 4.813500 10.189944 16.000000 0.000000 0.000000 0.000000
Mg 8.022500 10.189944 16.000000 0.000000 0.000000 0.000000
Mg 11.231500 10.189944 16.000000 0.000000 0.000000 0.000000
Mg 14.440500 10.189944 16.000000 0.000000 0.000000 0.000000
Mg 0.000000 0.000000 18.605500 0.000000 0.000000 0.000000
Mg 3.209000 0.000000 18.605500 0.000000 0.000000 0.000000
Mg 6.418000 0.000000 18.605500 0.000000 0.000000 0.000000
Mg 9.627000 0.000000 18.605500 0.000000 0.000000 0.000000
Mg 1.604500 2.779076 18.605500 0.000000 0.000000 0.000000
Mg 4.813500 2.779076 18.605500 0.000000 0.000000 0.000000
Mg 8.022500 2.779076 18.605500 0.000000 0.000000 0.000000
Mg 11.231500 2.779076 18.605500 0.000000 0.000000 0.000000
Mg 3.209000 5.558151 18.605500 0.000000 0.000000 0.000000
Mg 6.418000 5.558151 18.605500 0.000000 0.000000 0.000000
Mg 9.627000 5.558151 18.605500 0.000000 0.000000 0.000000
Mg 12.836000 5.558151 18.605500 0.000000 0.000000 0.000000
Mg 4.813500 8.337227 18.605500 0.000000 0.000000 0.000000
Mg 8.022500 8.337227 18.605500 0.000000 0.000000 0.000000
Mg 11.231500 8.337227 18.605500 0.000000 0.000000 0.000000
Mg 14.440500 8.337227 18.605500 0.000000 0.000000 0.000000
Mg -1.635657 1.328947 21.136942 0.000000 0.000000 0.000000
Mg 1.828326 0.162982 22.460521 0.000000 0.000000 0.000000
Mg 4.430302 0.267700 21.449578 0.000000 0.000000 0.000000
Mg 8.111423 0.773130 20.901946 0.000000 0.000000 0.000000
Mg -0.244269 3.620722 21.861360 0.000000 0.000000 0.000000
Mg 3.094045 2.938961 21.805248 0.000000 0.000000 0.000000
Mg 6.521349 1.591824 23.476472 0.000000 0.000000 0.000000
Mg 6.307958 3.350716 21.472022 0.000000 0.000000 0.000000
Mg 1.777032 5.989533 21.046851 0.000000 0.000000 0.000000
Mg 4.169175 7.054054 21.297369 0.000000 0.000000 0.000000
Mg 9.337125 4.264120 21.510144 0.000000 0.000000 0.000000
Mg 11.245110 6.734711 20.937628 0.000000 0.000000 0.000000
Mg 3.183950 9.752487 21.071610 0.000000 0.000000 0.000000
Mg 6.187551 9.310318 20.867801 0.000000 0.000000 0.000000
Mg 8.962795 8.701045 21.368731 0.000000 0.000000 0.000000
Mg 12.933695 9.424824 21.771371 0.000000 0.000000 0.000000
Mg -1.466306 -0.983788 23.735168 0.000000 0.000000 0.000000
Mg 1.420330 -0.737104 25.379933 0.000000 0.000000 0.000000
Mg 5.257353 -0.899788 24.340298 0.000000 0.000000 0.000000
Mg 8.521068 -1.098160 24.155455 0.000000 0.000000 0.000000
Mg -0.206428 1.496129 24.427025 0.000000 0.000000 0.000000
Mg 3.664130 2.054409 24.812435 0.000000 0.000000 0.000000
Mg 7.913781 1.979163 26.260035 0.000000 0.000000 0.000000
Mg 9.464127 2.385766 23.328256 0.000000 0.000000 0.000000
Mg 1.679948 4.550164 23.829968 0.000000 0.000000 0.000000
Mg 4.862829 5.266967 24.249645 0.000000 0.000000 0.000000
Mg 7.874085 4.824392 24.388482 0.000000 0.000000 0.000000
Mg 10.937293 4.727119 23.909733 0.000000 0.000000 0.000000
Mg 2.934604 7.439701 23.827084 0.000000 0.000000 0.000000
Mg 6.523770 7.820752 23.462169 0.000000 0.000000 0.000000
Mg 9.671354 7.798644 24.256791 0.000000 0.000000 0.000000
Mg 12.839404 7.225372 23.577809 0.000000 0.000000 0.000000
Mg 7.467743 11.841657 28.841289 0.504585 -2.548203 -2.400758
Mg 22.146352 3.004082 26.156270 13.482479 8.423875 -3.968498
Cl 6.315297 9.498319 29.926335 0.949597 -14.421147 -4.112257
Cl 3.360946 12.013389 25.922213 1.206122 26.619535 -31.990999
Cl -5.399306 4.015155 27.207733 -11.266881 16.354157 -6.461668
O  7.721735 -1.877605 26.172760 0.719531 1.150942 -0.111472
C  7.645561 -3.154888 26.739622 -2.484205 -1.859162 0.298511
C  7.430669 -2.911994 28.234347 0.076063 -2.903832 -3.007597
C  6.628812 -1.642232 28.382249 -3.911615 0.101963 -7.435496
C  6.967929 -0.925134 27.041792 -0.891358 -3.104539 -1.140750
H  8.577134 -3.743672 26.729868 -0.159422 -0.165871 -1.479610
H  6.726057 -3.662534 26.490895 -0.165125 -0.681728 -1.719775
H  8.512353 -3.035583 28.154255 1.004564 1.556106 2.582976
H  7.086024 -3.749384 28.877696 -0.104619 0.233818 -0.751134
H  6.726448 -0.677782 28.930828 -1.221909 -0.403065 -1.525775
H  5.508527 -1.788470 28.498252 0.979949 -0.327151 -0.336875
H  7.594528 -0.086361 27.209653 0.281111 1.004057 0.152877
H  6.103720 -0.717826 26.424635 -0.700419 0.810174 0.312577
O  4.043237 10.930376 34.740501 -1.071418 -0.313193 -1.511161
C  5.210356 11.499055 35.186274 1.626525 1.842919 -0.482158
C  6.429899 10.719473 34.548555 -0.217180 1.280941 4.610590
C  5.817623 9.299767 34.691439 0.994453 -1.637222 -1.861533
C  4.277848 9.526406 34.666028 -1.750708 -0.859054 2.274613
H  5.245989 11.444804 36.301944 0.386514 0.025261 -0.201733
H  5.207862 12.565309 34.863828 0.041989 -0.422681 0.341663
H  7.320266 10.970643 35.253711 -0.987203 -0.803306 -1.693584
H  7.337569 13.127514 34.162115 -0.361135 -1.239001 -0.499443
H  6.270542 8.673513 35.580604 -0.832466 1.353209 -1.414570
H  5.980724 8.661120 33.753536 0.308298 0.427591 1.066503
H  3.644535 9.142745 35.560065 1.554528 -0.165769 -0.788688
H  3.731073 9.069976 33.824794 0.428232 0.387104 -0.412382
O  4.699650 6.888686 26.236243 -0.549828 -0.462005 -1.336366
C  7.704482 10.561949 27.422704 1.121188 -5.131753 1.036523
C  6.377600 10.056738 27.120359 -0.785943 1.877854 0.388008
C  6.299282 8.605020 26.955028 -1.139480 -1.817864 0.380909
C  4.868454 8.265646 26.504374 1.323923 -3.384515 0.637841
H  7.788005 11.463383 27.071112 0.649261 5.646435 -2.653813
H  6.046761 10.714643 26.211610 -1.074071 -1.014726 0.495247
H  4.355206 13.418570 25.254406 1.157568 1.340201 -1.314559
H  5.655704 10.370666 27.968447 0.185861 -0.737166 -1.433269
H  6.424919 8.190918 27.995510 -0.177279 0.189224 -0.504335
H  7.101021 8.020169 26.436420 -0.482854 0.934202 -0.507876
H  4.557817 8.849010 25.642145 -0.292865 0.853544 -0.172195
H  4.298524 8.410225 27.413151 -1.035985 1.031034 0.411214
O  7.054578 13.587543 27.502666 1.416657 3.586546 -0.647899
C  6.925564 15.006182 27.000818 1.171769 2.647907 -1.293138
C  5.834514 15.920780 27.718069 3.130577 -4.450394 -0.940984
C  5.138676 14.600939 28.091643 -5.477480 2.749434 -2.187349
C  5.845426 13.320554 28.350495 1.980927 -3.433572 -6.533230
H  6.428913 14.945576 26.018510 0.822697 -0.017587 -0.322955
H  7.827496 15.694585 27.053770 0.066360 -1.864784 -0.477036
H  4.962589 16.351879 27.251912 0.339472 1.554289 -1.227103
H  6.097663 16.063198 28.765870 1.172183 2.287709 -0.332254
H  4.146976 14.126679 27.969819 -0.114253 1.064784 -2.398063
H  4.709378 15.562569 28.571662 -1.734335 -2.144294 2.254840
H  5.400442 12.474032 27.710184 -1.062216 1.124121 -0.790134
H  5.817528 12.464380 29.104973 2.597166 -2.113539 -2.166708
O  9.496336 12.418244 27.956895 3.541983 1.090977 2.557430
C  10.900453 12.329101 28.354683 2.416776 1.599971 -4.155352
C  11.245428 13.275524 29.464985 0.315838 1.174947 -0.401628
C  10.133632 12.994732 30.475550 2.422900 1.269510 -1.465358
C  9.176190 12.535662 29.397695 0.432949 0.883202 0.178794
H  11.436528 12.512726 27.399544 0.300218 0.751822 0.015617
H  11.234668 11.365853 28.457052 0.016814 -3.079769 1.267106
H  11.124177 14.243656 29.054652 -0.559064 1.566023 -0.653294
H  12.278149 13.361988 29.845532 -0.798181 -0.603326 -0.481714
H  10.035608 13.824326 31.192559 -1.029264 0.093642 -0.589459
H  10.587274 12.210689 31.023536 -0.872058 -1.261030 0.422143
H  8.452982 13.314923 29.316209 -0.531746 0.887494 -0.224191
H  8.899514 11.501980 29.713150 0.970407 -0.228243 -0.129688
O  9.309022 8.632959 28.685532 -0.586863 -1.369636 -1.464310
C  9.298739 7.325107 28.023716 0.716347 0.654623 2.562976
C  9.017080 6.333231 29.208431 0.480332 -1.157099 -1.403813
C  9.195306 7.073428 30.530460 0.287116 0.659465 -0.464986
C  9.760641 8.397453 29.995496 2.600174 -0.417943 -0.477754
H  10.201289 7.194387 27.443884 1.144131 -0.340036 0.151767
H  8.567237 7.256343 27.286541 -1.857993 0.281392 -1.207586
H  9.707079 5.459392 29.089564 -0.091157 0.275081 0.354478
H  8.038909 5.891464 29.033992 -0.423538 0.055329 0.290226
H  9.849125 6.523866 31.227495 -0.070942 0.326977 -0.063188
H  8.268067 7.347019 31.028745 -0.489144 -0.444826 0.073199
H  10.907167 8.421829 29.936647 -1.753597 -0.545687 0.330580
H  9.491615 9.288553 30.496797 -0.532514 0.988958 1.185998
Al 9.280060 0.922773 28.760035 -0.569310 -1.894740 4.970069
Cl 9.834350 -0.117163 26.956676 2.730077 -34.167281 31.231934
Cl 8.313784 2.686144 27.981180 8.260063 -9.401928 16.605033
C  10.935328 1.109529 29.691387 -3.737557 2.315050 1.642844
C  11.664386 0.063330 30.118221 -0.074578 1.232482 3.096057
C  13.028813 0.113507 30.857355 0.364317 8.013741 0.985679
C  13.599949 1.583314 30.934468 -3.245628 -0.603521 -1.752408
C  12.809015 2.638908 30.154252 7.686545 0.934431 8.004344
C  11.550082 2.452845 29.732727 -7.224135 -1.203774 4.689121
H  11.212387 -0.911650 30.044962 -2.487285 1.097962 0.941716
H  13.734515 -0.627310 30.281704 2.052355 2.411531 2.563532
H  14.660875 1.402503 30.508880 -2.829046 1.427319 4.577473
H  13.274678 3.624023 30.038614 0.085446 -0.093810 0.141363
H  10.896062 3.250718 29.361149 -0.927709 -0.851111 4.113365
C  7.810188 -0.082437 29.773915 3.561703 2.795490 2.248966
C  6.936960 0.698936 30.511967 0.735482 1.741304 1.346966
C  5.867248 0.218432 31.292150 -0.464612 -1.025412 0.761063
C  5.548072 -1.169819 31.214295 0.693088 0.421972 0.990747
C  6.383257 -2.013421 30.469950 -0.328867 -1.122144 4.253443
C  7.536699 -1.468558 29.836735 1.298309 -0.989918 3.864226
H  7.089426 1.823250 30.668449 0.530776 -1.568995 -0.419638
H  5.304068 0.920376 31.958500 1.141556 -1.032025 -0.189608
H  4.723006 -1.593009 31.830742 0.607155 0.395992 -0.490707
H  6.125555 -3.111803 30.396325 0.676194 1.297459 0.400636
H  8.137314 -2.246743 29.311656 1.669234 2.104302 3.375486
172
Lattice="12.836 0 0 6.418 11.116 0 0 0 55" Properties=species:S:1:pos:R:3:forces:R:3 energy=-124791.332082 charge=1 scf_converged=T pbc="T T T" config_type=bias_bare_qp1_d2.5 net_charge=1.0
Mg 0.000000 1.852717 16.000000 0.000000 0.000000 0.000000
Mg 3.209000 1.852717 16.000000 0.000000 0.000000 0.000000
Mg 6.418000 1.852717 16.000000 0.000000 0.000000 0.000000
Mg 9.627000 1.852717 16.000000 0.000000 0.000000 0.000000
Mg 1.604500 4.631793 16.000000 0.000000 0.000000 0.000000
Mg 4.813500 4.631793 16.000000 0.000000 0.000000 0.000000
Mg 8.022500 4.631793 16.000000 0.000000 0.000000 0.000000
Mg 11.231500 4.631793 16.000000 0.000000 0.000000 0.000000
Mg 3.209000 7.410868 16.000000 0.000000 0.000000 0.000000
Mg 6.418000 7.410868 16.000000 0.000000 0.000000 0.000000
Mg 9.627000 7.410868 16.000000 0.000000 0.000000 0.000000
Mg 12.836000 7.410868 16.000000 0.000000 0.000000 0.000000
Mg 4.813500 10.189944 16.000000 0.000000 0.000000 0.000000
Mg 8.022500 10.189944 16.000000 0.000000 0.000000 0.000000
Mg 11.231500 10.189944 16.000000 0.000000 0.000000 0.000000
Mg 14.440500 10.189944 16.000000 0.000000 0.000000 0.000000
Mg 0.000000 0.000000 18.605500 0.000000 0.000000 0.000000
Mg 3.209000 0.000000 18.605500 0.000000 0.000000 0.000000
Mg 6.418000 0.000000 18.605500 0.000000 0.000000 0.000000
Mg 9.627000 0.000000 18.605500 0.000000 0.000000 0.000000
Mg 1.604500 2.779076 18.605500 0.000000 0.000000 0.000000
Mg 4.813500 2.779076 18.605500 0.000000 0.000000 0.000000
Mg 8.022500 2.779076 18.605500 0.000000 0.000000 0.000000
Mg 11.231500 2.779076 18.605500 0.000000 0.000000 0.000000
Mg 3.209000 5.558151 18.605500 0.000000 0.000000 0.000000
Mg 6.418000 5.558151 18.605500 0.000000 0.000000 0.000000
Mg 9.627000 5.558151 18.605500 0.000000 0.000000 0.000000
Mg 12.836000 5.558151 18.605500 0.000000 0.000000 0.000000
Mg 4.813500 8.337227 18.605500 0.000000 0.000000 0.000000
Mg 8.022500 8.337227 18.605500 0.000000 0.000000 0.000000
Mg 11.231500 8.337227 18.605500 0.000000 0.000000 0.000000
Mg 14.440500 8.337227 18.605500 0.000000 0.000000 0.000000
Mg -1.635657 1.328947 21.136942 0.000000 0.000000 0.000000
Mg 1.828326 0.162982 22.460521 0.000000 0.000000 0.000000
Mg 4.430302 0.267700 21.449578 0.000000 0.000000 0.000000
Mg 8.111423 0.773130 20.901946 0.000000 0.000000 0.000000
Mg -0.244269 3.620722 21.861360 0.000000 0.000000 0.000000
Mg 3.094045 2.938961 21.805248 0.000000 0.000000 0.000000
Mg 6.521349 1.591824 23.476472 0.000000 0.000000 0.000000
Mg 6.307958 3.350716 21.472022 0.000000 0.000000 0.000000
Mg 1.777032 5.989533 21.046851 0.000000 0.000000 0.000000
Mg 4.169175 7.054054 21.297369 0.000000 0.000000 0.000000
Mg 9.337125 4.264120 21.510144 0.000000 0.000000 0.000000
Mg 11.245110 6.734711 20.937628 0.000000 0.000000 0.000000
Mg 3.183950 9.752487 21.071610 0.000000 0.000000 0.000000
Mg 6.187551 9.310318 20.867801 0.000000 0.000000 0.000000
Mg 8.962795 8.701045 21.368731 0.000000 0.000000 0.000000
Mg 12.933695 9.424824 21.771371 0.000000 0.000000 0.000000
Mg -1.466306 -0.983788 23.735168 0.000000 0.000000 0.000000
Mg 1.420330 -0.737104 25.379933 0.000000 0.000000 0.000000
Mg 5.257353 -0.899788 24.340298 0.000000 0.000000 0.000000
Mg 8.521068 -1.098160 24.155455 0.000000 0.000000 0.000000
Mg -0.206428 1.496129 24.427025 0.000000 0.000000 0.000000
Mg 3.664130 2.054409 24.812435 0.000000 0.000000 0.000000
Mg 7.913781 1.979163 26.260035 0.000000 0.000000 0.000000
Mg 9.464127 2.385766 23.328256 0.000000 0.000000 0.000000
Mg 1.679948 4.550164 23.829968 0.000000 0.000000 0.000000
Mg 4.862829 5.266967 24.249645 0.000000 0.000000 0.000000
Mg 7.874085 4.824392 24.388482 0.000000 0.000000 0.000000
Mg 10.937293 4.727119 23.909733 0.000000 0.000000 0.000000
Mg 2.934604 7.439701 23.827084 0.000000 0.000000 0.000000
Mg 6.523770 7.820752 23.462169 0.000000 0.000000 0.000000
Mg 9.671354 7.798644 24.256791 0.000000 0.000000 0.000000
Mg 12.839404 7.225372 23.577809 0.000000 0.000000 0.000000
Mg 7.437496 11.829578 28.685570 -0.996687 1.876534 0.597938
Mg 22.296708 2.978729 26.301380 11.055578 9.010012 -8.003650
Cl 6.380659 9.452506 29.885291 1.302752 -12.961472 -4.527946
Cl 3.540986 11.852968 25.791590 4.372769 22.768816 -34.581027
Cl -5.332615 3.833977 27.343878 -21.625740 30.315501 -12.085243
O  7.716308 -1.708229 26.234522 1.213786 0.305248 -1.350052
C  7.695633 -3.056975 26.660261 -4.813351 -0.454135 1.479286
C  7.469761 -2.839113 28.168865 0.188379 -1.944016 -1.656466
C  6.681653 -1.565456 28.419520 -4.322192 -0.489356 -7.101285
C  7.000592 -0.779480 27.121708 -1.494844 -4.127216 -1.446696
H  8.614665 -3.581572 26.747466 1.024598 -1.048270 -2.217656
H  6.726365 -3.536326 26.537471 0.142485 -0.756811 -2.326638
H  8.549284 -2.849286 28.058770 1.071471 1.566540 2.815181
H  7.176519 -3.601237 28.920324 -0.051913 -0.276107 -1.169076
H  6.701064 -0.630731 28.998726 -1.132085 0.507041 -1.161642
H  5.552992 -1.682662 28.584700 1.074217 -0.523189 -0.655655
H  7.629700 0.026442 27.252937 0.901208 1.827508 0.565289
H  6.116540 -0.596858 26.537093 -0.893530 0.878586 0.184433
O  3.940681 10.868418 34.751478 -0.025405 0.375181 -0.681620
C  5.162263 11.497239 35.158207 -0.224916 0.565256 -1.569973
C  6.300975 10.731624 34.416200 1.676971 1.967372 5.017232
C  5.777555 9.301492 34.541899 0.179263 -1.714309 -1.935917
C  4.214354 9.469894 34.642948 -1.516022 -0.654705 1.055667
H  5.240522 11.406852 36.248036 0.410261 0.043681 0.313266
H  5.078341 12.561180 34.854944 0.099477 -0.364793 0.272850
H  7.273426 10.989239 35.065315 -1.766697 -1.031904 -1.852257
H  7.278586 12.960850 34.160165 -0.502757 -1.299952 -0.683435
H  6.290330 8.664992 35.370026 -0.739505 1.235196 -1.109231
H  5.904079 8.704509 33.571199 0.253972 0.408170 1.060282
H  3.628876 9.051009 35.528469 1.479234 -0.269010 -0.410790
H  3.628358 9.018587 33.793785 0.747168 0.636374 0.087210
O  4.217949 7.287626 25.956221 -0.675086 0.361850 -1.305247
C  7.492084 10.682364 27.161976 0.927628 -3.374218 2.782258
C  6.101061 10.311896 26.969301 -0.544793 0.868236 1.072059
C  5.922192 8.867835 26.729717 -1.180106 -1.337665 -0.022358
C  4.458085 8.646505 26.350280 1.720312 -4.852855 0.624803
H  7.546164 11.631116 26.864262 0.606406 4.503260 -1.791454
H  5.739582 11.036447 26.175602 -0.714337 -0.940639 -0.062511
H  4.548787 13.214963 25.316284 1.365535 1.833388 -1.234298
H  5.474714 10.577623 27.884626 0.368422 -0.513364 -0.854217
H  6.117052 8.343601 27.694311 -0.145379 0.216865 -0.124932
H  6.634738 8.301598 26.074675 -0.339187 0.738968 -0.285245
H  4.109446 9.316916 25.588183 -0.312915 0.674319 -0.493285
H  3.946693 8.739967 27.296966 -0.810322 0.637429 0.532965
O  7.038886 13.747859 27.639096 3.209132 1.339600 -1.273518
C  6.814475 15.205259 27.294717 2.155508 4.119735 -1.774551
C  5.940626 16.237867 28.162913 3.588878 -0.799674 -3.744158
C  5.383392 14.821933 28.324677 -4.610489 4.503345 0.684728
C  5.826629 13.387681 28.471023 1.518915 -1.542557 -7.390004
H  6.293394 15.243101 26.344528 0.206901 0.120880 -0.708219
H  7.756419 15.835673 27.294853 0.260939 -2.024475 -0.629836
H  5.006400 16.621053 27.802943 0.065862 1.432377 -0.448918
H  6.492365 16.426946 29.095944 -0.233096 1.636090 -0.320789
H  4.377862 14.554080 27.926303 0.210282 1.599695 -0.505023
H  5.431020 15.457818 29.283720 -1.550828 -2.664732 0.051048
H  5.237291 12.657576 27.778140 -0.658783 1.432198 -0.778202
H  5.822829 12.472133 29.097357 2.981188 -3.498812 -1.918205
O  9.421451 12.517948 27.910830 3.354944 -0.965072 1.281271
C  10.876535 12.261028 28.016470 -0.010229 1.270592 -1.186522
C  11.314759 13.104402 29.214824 0.043688 0.799473 -1.070382
C  10.270649 12.747282 30.289436 1.215900 2.111603 -1.675702
C  9.131304 12.443488 29.360116 1.981762 1.527699 -0.685451
H  11.269983 12.504721 27.023734 0.474602 0.681739 -0.071678
H  11.087747 11.229198 28.056374 -0.190762 -1.736941 0.695195
H  11.162649 14.118556 28.884232 -0.251311 0.896686 -0.161773
H  12.375806 13.093837 29.525063 -0.892977 -0.355801 -0.502811
H  10.225441 13.540495 31.071602 -0.627921 -0.363408 -0.590814
H  10.692780 11.883525 30.723994 -0.615011 -1.168176 0.418346
H  8.422983 13.264444 29.279171 0.091157 0.534142 0.418740
H  8.772024 11.427338 29.716437 1.091018 0.036753 -0.705246
O  9.431375 8.819813 28.655540 -0.386159 -0.794505 -0.851315
C  9.234136 7.500986 28.070947 1.470712 0.471533 -0.055541
C  8.808126 6.605646 29.242484 2.445071 -0.830136 -0.649461
C  9.118725 7.364091 30.519913 -0.257274 0.204151 1.021382
C  9.874635 8.580239 29.990694 1.189653 -1.570033 -1.306713
H  10.146570 7.218985 27.453533 -0.181590 -0.126244 1.093113
H  8.513999 7.491696 27.286792 -1.290650 0.672253 -0.617082
H  9.361368 5.648540 29.186100 0.149214 0.135315 0.171306
H  7.828890 6.309094 29.097628 -2.557877 -0.321539 0.020957
H  9.658883 6.725378 31.257439 -0.003199 0.534140 -0.392300
H  8.220462 7.746020 31.038633 -0.026879 -0.351864 -0.286678
H  10.987097 8.428171 29.946543 -1.459519 -0.239052 0.130730
H  9.693267 9.500702 30.451929 -0.423333 1.409389 1.282952
Al 9.280060 0.922773 28.760035 0.349259 -1.914001 4.410661
Cl 9.834350 -0.117163 26.956676 -3.879036 -27.579919 34.705039
Cl 8.313784 2.686144 27.981180 16.402415 -21.345023 23.464724
C  10.935328 1.109529 29.691387 -3.036482 0.669857 2.884649
C  11.664386 0.063330 30.118221 -0.848113 0.968591 3.102166
C  13.028813 0.113507 30.857355 0.101601 8.032902 0.729651
C  13.599949 1.583314 30.934468 -2.932325 -1.222844 -1.783399
C  12.809015 2.638908 30.154252 7.435107 0.343455 8.102602
C  11.550082 2.452845 29.732727 -9.277372 -3.240385 5.549650
H  11.212387 -0.911650 30.044962 -1.820403 0.935283 0.804630
H  13.734515 -0.627310 30.281704 1.688826 2.106329 2.546702
H  14.660875 1.402503 30.508880 -2.714443 1.593975 4.491370
H  13.274678 3.624023 30.038614 0.174403 -0.218281 0.269922
H  10.896062 3.250718 29.361149 -1.888801 -1.200305 3.597387
C  7.810188 -0.082437 29.773915 3.981186 3.529517 2.765067
C  6.936960 0.698936 30.511967 1.153453 1.758434 1.257922
C  5.867248 0.218432 31.292150 -0.423772 -1.283250 1.176504
C  5.548072 -1.169819 31.214295 0.951725 0.436266 1.281490
C  6.383257 -2.013421 30.469950 -0.467912 -1.392128 4.319214
C  7.536699 -1.468558 29.836735 0.939614 -1.512661 2.976651
H  7.089426 1.823250 30.668449 0.423905 -1.474326 -0.431675
H  5.304068 0.920376 31.958500 1.083073 -0.979408 -0.181498
H  4.723006 -1.593009 31.830742 0.704302 0.423276 -0.429136
H  6.125555 -3.111803 30.396325 0.754538 1.221671 0.403751
H  8.137314 -2.246743 29.311656 1.873865 1.891190 3.549063
172
Lattice="12.836 0 0 6.418 11.116 0 0 0 55" Properties=species:S:1:pos:R:3:forces:R:3 energy=-124812.269246 charge=1 scf_converged=T pbc="T T T" config_type=bias_bare_qp1_d2.75 net_charge=1.0
Mg 0.000000 1.852717 16.000000 0.000000 0.000000 0.000000
Mg 3.209000 1.852717 16.000000 0.000000 0.000000 0.000000
Mg 6.418000 1.852717 16.000000 0.000000 0.000000 0.000000
Mg 9.627000 1.852717 16.000000 0.000000 0.000000 0.000000
Mg 1.604500 4.631793 16.000000 0.000000 0.000000 0.000000
Mg 4.813500 4.631793 16.000000 0.000000 0.000000 0.000000
Mg 8.022500 4.631793 16.000000 0.000000 0.000000 0.000000
Mg 11.231500 4.631793 16.000000 0.000000 0.000000 0.000000
Mg 3.209000 7.410868 16.000000 0.000000 0.000000 0.000000
Mg 6.418000 7.410868 16.000000 0.000000 0.000000 0.000000
Mg 9.627000 7.410868 16.000000 0.000000 0.000000 0.000000
Mg 12.836000 7.410868 16.000000 0.000000 0.000000 0.000000
Mg 4.813500 10.189944 16.000000 0.000000 0.000000 0.000000
Mg 8.022500 10.189944 16.000000 0.000000 0.000000 0.000000
Mg 11.231500 10.189944 16.000000 0.000000 0.000000 0.000000
Mg 14.440500 10.189944 16.000000 0.000000 0.000000 0.000000
Mg 0.000000 0.000000 18.605500 0.000000 0.000000 0.000000
Mg 3.209000 0.000000 18.605500 0.000000 0.000000 0.000000
Mg 6.418000 0.000000 18.605500 0.000000 0.000000 0.000000
Mg 9.627000 0.000000 18.605500 0.000000 0.000000 0.000000
Mg 1.604500 2.779076 18.605500 0.000000 0.000000 0.000000
Mg 4.813500 2.779076 18.605500 0.000000 0.000000 0.000000
Mg 8.022500 2.779076 18.605500 0.000000 0.000000 0.000000
Mg 11.231500 2.779076 18.605500 0.000000 0.000000 0.000000
Mg 3.209000 5.558151 18.605500 0.000000 0.000000 0.000000
Mg 6.418000 5.558151 18.605500 0.000000 0.000000 0.000000
Mg 9.627000 5.558151 18.605500 0.000000 0.000000 0.000000
Mg 12.836000 5.558151 18.605500 0.000000 0.000000 0.000000
Mg 4.813500 8.337227 18.605500 0.000000 0.000000 0.000000
Mg 8.022500 8.337227 18.605500 0.000000 0.000000 0.000000
Mg 11.231500 8.337227 18.605500 0.000000 0.000000 0.000000
Mg 14.440500 8.337227 18.605500 0.000000 0.000000 0.000000
Mg -1.635657 1.328947 21.136942 0.000000 0.000000 0.000000
Mg 1.828326 0.162982 22.460521 0.000000 0.000000 0.000000
Mg 4.430302 0.267700 21.449578 0.000000 0.000000 0.000000
Mg 8.111423 0.773130 20.901946 0.000000 0.000000 0.000000
Mg -0.244269 3.620722 21.861360 0.000000 0.000000 0.000000
Mg 3.094045 2.938961 21.805248 0.000000 0.000000 0.000000
Mg 6.521349 1.591824 23.476472 0.000000 0.000000 0.000000
Mg 6.307958 3.350716 21.472022 0.000000 0.000000 0.000000
Mg 1.777032 5.989533 21.046851 0.000000 0.000000 0.000000
Mg 4.169175 7.054054 21.297369 0.000000 0.000000 0.000000
Mg 9.337125 4.264120 21.510144 0.000000 0.000000 0.000000
Mg 11.245110 6.734711 20.937628 0.000000 0.000000 0.000000
Mg 3.183950 9.752487 21.071610 0.000000 0.000000 0.000000
Mg 6.187551 9.310318 20.867801 0.000000 0.000000 0.000000
Mg 8.962795 8.701045 21.368731 0.000000 0.000000 0.000000
Mg 12.933695 9.424824 21.771371 0.000000 0.000000 0.000000
Mg -1.466306 -0.983788 23.735168 0.000000 0.000000 0.000000
Mg 1.420330 -0.737104 25.379933 0.000000 0.000000 0.000000
Mg 5.257353 -0.899788 24.340298 0.000000 0.000000 0.000000
Mg 8.521068 -1.098160 24.155455 0.000000 0.000000 0.000000
Mg -0.206428 1.496129 24.427025 0.000000 0.000000 0.000000
Mg 3.664130 2.054409 24.812435 0.000000 0.000000 0.000000
Mg 7.913781 1.979163 26.260035 0.000000 0.000000 0.000000
Mg 9.464127 2.385766 23.328256 0.000000 0.000000 0.000000
Mg 1.679948 4.550164 23.829968 0.000000 0.000000 0.000000
Mg 4.862829 5.266967 24.249645 0.000000 0.000000 0.000000
Mg 7.874085 4.824392 24.388482 0.000000 0.000000 0.000000
Mg 10.937293 4.727119 23.909733 0.000000 0.000000 0.000000
Mg 2.934604 7.439701 23.827084 0.000000 0.000000 0.000000
Mg 6.523770 7.820752 23.462169 0.000000 0.000000 0.000000
Mg 9.671354 7.798644 24.256791 0.000000 0.000000 0.000000
Mg 12.839404 7.225372 23.577809 0.000000 0.000000 0.000000
Mg 7.494978 11.866492 28.731615 -4.295666 -2.657812 5.342338
Mg 22.248116 2.922569 26.153120 11.717746 9.805028 -3.249348
Cl 6.656532 9.410907 29.821636 0.539387 -7.906723 -4.349736
Cl 3.553582 11.807238 26.010785 5.786048 22.251749 -36.342774
Cl -5.425945 3.938970 27.297704 -10.248945 14.287928 -7.775831
O  7.720850 -1.728309 26.230199 0.914098 1.310913 -0.467653
C  7.631376 -2.972710 26.871724 -2.363671 -2.625365 -0.953768
C  7.509729 -2.655004 28.319899 -0.315459 -2.130990 -3.085166
C  6.610838 -1.463463 28.387369 -2.241920 2.028433 -5.307959
C  6.988982 -0.737865 27.043597 -2.512214 -4.246386 -0.409790
H  8.543452 -3.562541 26.802033 0.193204 -0.370390 -1.148431
H  6.724778 -3.515294 26.549797 0.244352 -0.139672 -0.740360
H  8.606008 -2.518759 28.216727 0.175263 0.700315 1.960860
H  7.104060 -3.488599 28.959096 0.858976 0.321118 -0.775491
H  6.869612 -0.597223 29.047793 -1.815458 -0.936813 -2.364147
H  5.510577 -1.603552 28.574215 0.892770 -0.392258 -0.667124
H  7.622927 0.076384 27.197268 0.543724 1.456387 0.288649
H  6.094728 -0.585043 26.442461 -0.344458 1.049233 0.117969
O  3.820455 10.723468 34.770307 0.171514 0.235264 -0.564453
C  4.992183 11.420780 35.148654 0.393191 1.429656 -1.472154
C  6.225297 10.736961 34.436522 -0.148439 1.037103 5.053912
C  5.745038 9.266223 34.655606 1.132480 -1.549570 -2.680553
C  4.198711 9.339634 34.717512 -1.947657 -0.558011 2.461592
H  5.099862 11.396039 36.258257 0.322705 0.022057 -0.229908
H  4.856647 12.473338 34.800927 0.067160 -0.457107 0.422778
H  7.124951 11.073557 35.091367 -1.057517 -0.998924 -1.606261
H  7.236995 13.111309 34.255341 -0.375963 -1.013145 -0.661367
H  6.309657 8.726378 35.504558 -0.844027 0.946837 -1.006166
H  5.918378 8.626104 33.701054 0.248869 0.616098 1.368621
H  3.632540 8.935106 35.657557 1.714271 -0.089567 -1.007168
H  3.641112 8.829256 33.915771 0.441188 0.306271 -0.429392
O  4.444489 7.192023 26.070983 -0.675155 -0.413151 -1.596209
C  7.554128 10.739544 27.227833 2.652557 -3.684543 1.328166
C  6.241902 10.291666 26.961343 -1.996885 -0.061684 0.806979
C  6.111784 8.806864 26.752370 -0.793465 -0.337031 -0.593532
C  4.658730 8.546939 26.416119 1.396372 -4.114987 -0.001844
H  7.658449 11.669927 26.924434 0.706435 4.982149 -2.281138
H  5.819438 10.992806 26.162139 -0.622894 -1.161766 0.022067
H  4.559334 13.394792 25.200075 0.604259 0.688663 -0.661415
H  5.632718 10.502941 27.873184 -0.401349 -0.462753 -0.412183
H  6.345134 8.305539 27.709971 -0.001112 0.199000 0.016959
H  6.816238 8.271715 26.048823 -0.436892 0.753945 0.007760
H  4.238939 9.176751 25.642560 -0.251628 0.953136 -0.331120
H  4.169417 8.621664 27.350855 -1.219793 0.925973 1.312144
O  7.074404 13.731403 27.602974 0.205025 2.616770 -0.327242
C  6.736302 15.164984 27.251806 2.769736 4.149816 -2.580354
C  5.813985 16.114284 28.117921 3.024494 -3.018136 -3.192476
C  5.228799 14.705878 28.415346 -1.157465 0.997533 -0.311464
C  5.865905 13.323857 28.442110 1.033626 -2.188898 -6.631183
H  6.228922 15.227496 26.277825 0.173807 -0.438424 -0.166756
H  7.657792 15.863267 27.163925 -0.146779 -2.224211 -0.246256
H  4.917801 16.532233 27.769897 -0.737750 1.632899 -1.127608
H  6.361732 16.446823 28.998582 -0.194523 1.299867 -0.033950
H  4.249653 14.290608 28.180395 -0.851667 2.107560 -0.557523
H  5.571310 15.268983 29.306920 -1.536226 -1.554343 0.902450
H  5.353491 12.398813 27.965809 -0.377214 2.047756 -0.551726
H  6.148950 12.750597 29.351640 2.079268 -1.358672 -2.859350
O  9.536324 12.658262 27.968810 0.600554 -0.860075 0.368729
C  10.986025 12.422337 27.835825 -1.211681 1.394971 2.028927
C  11.408292 13.342157 29.028770 -0.204788 0.066840 -1.450603
C  10.487480 12.960684 30.181497 -0.696740 1.829235 -1.710758
C  9.225869 12.594040 29.445934 2.387073 0.594634 -1.942011
H  11.291212 12.695577 26.835322 0.266423 0.839351 -0.487501
H  11.227968 11.388859 27.876419 -0.028238 -1.253957 0.665763
H  11.193784 14.329842 28.645487 -0.171424 0.680258 0.007247
H  12.438138 13.356907 29.290192 0.939571 -0.317603 0.283293
H  10.346599 13.756185 30.924614 0.128302 -0.206250 0.031995
H  10.889344 12.080782 30.560426 0.369890 -1.307391 1.127331
H  8.403380 13.320036 29.536716 0.751378 0.455263 -0.348891
H  8.936631 11.532559 29.759427 0.982934 0.483515 -0.365115
O  9.433950 8.856702 28.579578 -0.143777 -1.575222 -0.482642
C  9.307694 7.522634 27.997543 0.295838 0.587088 0.535619
C  8.934075 6.588795 29.177962 -0.031116 -0.673593 -1.236327
C  9.178420 7.377420 30.452959 0.311734 -0.863349 1.091108
C  9.856081 8.593538 29.932073 2.833033 0.515922 -1.641183
H  10.201101 7.279960 27.407275 0.676672 -0.261213 0.460440
H  8.560538 7.479547 27.232701 -1.080378 0.511098 -0.509628
H  9.497741 5.654985 29.084699 0.329193 -0.092304 0.346486
H  7.909310 6.260566 29.031037 -0.516840 0.135136 0.229437
H  9.776491 6.765961 31.186785 -0.282728 0.721008 -0.500629
H  8.274526 7.713228 30.959428 -0.430713 -0.362623 -0.031670
H  11.008549 8.516618 29.876666 -1.900680 -0.353683 0.251946
H  9.680140 9.539202 30.376993 -0.420211 0.895115 1.238725
Al 9.280060 0.922773 29.010035 -0.631983 -1.014486 4.569862
Cl 9.834350 -0.117163 27.206676 -3.809337 -26.918253 36.266595