172
Lattice="12.836 0 0 6.418 11.116 0 0 0 55" Properties=species:S:1:pos:R:3:forces:R:3 energy=-124876.611084 charge=-1 pbc="T T T" config_type=bias_bare_q-1_d5 net_charge=-1.0
Mg 0.000000 1.852717 16.000000 0.000000 0.000000 0.000000
Mg 3.209000 1.852717 16.000000 0.000000 0.000000 0.000000
Mg 6.418000 1.852717 16.000000 0.000000 0.000000 0.000000
Mg 9.627000 1.852717 16.000000 0.000000 0.000000 0.000000
Mg 1.604500 4.631793 16.000000 0.000000 0.000000 0.000000
Mg 4.813500 4.631793 16.000000 0.000000 0.000000 0.000000
Mg 8.022500 4.631793 16.000000 0.000000 0.000000 0.000000
Mg 11.231500 4.631793 16.000000 0.000000 0.000000 0.000000
Mg 3.209000 7.410868 16.000000 0.000000 0.000000 0.000000
Mg 6.418000 7.410868 16.000000 0.000000 0.000000 0.000000
Mg 9.627000 7.410868 16.000000 0.000000 0.000000 0.000000
Mg 12.836000 7.410868 16.000000 0.000000 0.000000 0.000000
Mg 4.813500 10.189944 16.000000 0.000000 0.000000 0.000000
Mg 8.022500 10.189944 16.000000 0.000000 0.000000 0.000000
Mg 11.231500 10.189944 16.000000 0.000000 0.000000 0.000000
Mg 14.440500 10.189944 16.000000 0.000000 0.000000 0.000000
Mg 0.000000 0.000000 18.605500 0.000000 0.000000 0.000000
Mg 3.209000 0.000000 18.605500 0.000000 0.000000 0.000000
Mg 6.418000 0.000000 18.605500 0.000000 0.000000 0.000000
Mg 9.627000 0.000000 18.605500 0.000000 0.000000 0.000000
Mg 1.604500 2.779076 18.605500 0.000000 0.000000 0.000000
Mg 4.813500 2.779076 18.605500 0.000000 0.000000 0.000000
Mg 8.022500 2.779076 18.605500 0.000000 0.000000 0.000000
Mg 11.231500 2.779076 18.605500 0.000000 0.000000 0.000000
Mg 3.209000 5.558151 18.605500 0.000000 0.000000 0.000000
Mg 6.418000 5.558151 18.605500 0.000000 0.000000 0.000000
Mg 9.627000 5.558151 18.605500 0.000000 0.000000 0.000000
Mg 12.836000 5.558151 18.605500 0.000000 0.000000 0.000000
Mg 4.813500 8.337227 18.605500 0.000000 0.000000 0.000000
Mg 8.022500 8.337227 18.605500 0.000000 0.000000 0.000000
Mg 11.231500 8.337227 18.605500 0.000000 0.000000 0.000000
Mg 14.440500 8.337227 18.605500 0.000000 0.000000 0.000000
Mg -1.635657 1.328947 21.136942 0.000000 0.000000 0.000000
Mg 1.828326 0.162982 22.460521 0.000000 0.000000 0.000000
Mg 4.430302 0.267700 21.449578 0.000000 0.000000 0.000000
Mg 8.111423 0.773130 20.901946 0.000000 0.000000 0.000000
Mg -0.244269 3.620722 21.861360 0.000000 0.000000 0.000000
Mg 3.094045 2.938961 21.805248 0.000000 0.000000 0.000000
Mg 6.521349 1.591824 23.476472 0.000000 0.000000 0.000000
Mg 6.307958 3.350716 21.472022 0.000000 0.000000 0.000000
Mg 1.777032 5.989533 21.046851 0.000000 0.000000 0.000000
Mg 4.169175 7.054054 21.297369 0.000000 0.000000 0.000000
Mg 9.337125 4.264120 21.510144 0.000000 0.000000 0.000000
Mg 11.245110 6.734711 20.937628 0.000000 0.000000 0.000000
Mg 3.183950 9.752487 21.071610 0.000000 0.000000 0.000000
Mg 6.187551 9.310318 20.867801 0.000000 0.000000 0.000000
Mg 8.962795 8.701045 21.368731 0.000000 0.000000 0.000000
Mg 12.933695 9.424824 21.771371 0.000000 0.000000 0.000000
Mg -1.466306 -0.983788 23.735168 0.000000 0.000000 0.000000
Mg 1.420330 -0.737104 25.379933 0.000000 0.000000 0.000000
Mg 5.257353 -0.899788 24.340298 0.000000 0.000000 0.000000
Mg 8.521068 -1.098160 24.155455 0.000000 0.000000 0.000000
Mg -0.206428 1.496129 24.427025 0.000000 0.000000 0.000000
Mg 3.664130 2.054409 24.812435 0.000000 0.000000 0.000000
Mg 7.913781 1.979163 26.260035 0.000000 0.000000 0.000000
Mg 9.464127 2.385766 23.328256 0.000000 0.000000 0.000000
Mg 1.679948 4.550164 23.829968 0.000000 0.000000 0.000000
Mg 4.862829 5.266967 24.249645 0.000000 0.000000 0.000000
Mg 7.874085 4.824392 24.388482 0.000000 0.000000 0.000000
Mg 10.937293 4.727119 23.909733 0.000000 0.000000 0.000000
Mg 2.934604 7.439701 23.827084 0.000000 0.000000 0.000000
Mg 6.523770 7.820752 23.462169 0.000000 0.000000 0.000000
Mg 9.671354 7.798644 24.256791 0.000000 0.000000 0.000000
Mg 12.839404 7.225372 23.577809 0.000000 0.000000 0.000000
Mg 7.304152 11.888461 28.819157 0.496681 -3.860806 -0.072925
Mg 22.250159 2.955489 26.182804 9.970473 8.911440 -1.398110
Cl 6.383043 9.495561 30.084041 0.384864 0.694094 0.371797
Cl 3.428931 11.601374 26.249828 -0.564727 -0.692069 0.554375
Cl -5.374441 3.935382 27.295695 -0.490223 0.902341 1.026370
O  7.758658 -1.784278 26.195662 0.379336 1.670884 0.517315
C  7.691601 -3.010520 26.886930 -0.871237 -1.533427 0.053649
C  7.537830 -2.713636 28.356501 0.648224 -0.542412 0.662646
C  6.681915 -1.457979 28.418300 0.125368 0.530379 -0.298045
C  7.055026 -0.807879 27.057297 -1.940953 -2.103474 -0.400363
H  8.580136 -3.599552 26.702660 0.484249 -0.352558 -0.422377
H  6.794928 -3.523795 26.480512 0.197595 -0.284973 0.219419
H  8.529986 -2.500071 28.787033 -0.087298 0.021257 -0.049488
H  7.166339 -3.617452 28.870340 -0.254025 0.322574 0.074927
H  7.064730 -0.729398 29.169166 -0.530259 -0.633598 0.106961
H  5.588444 -1.675179 28.538048 0.784240 0.261775 -0.232108
H  7.695311 0.007164 27.201529 1.025118 1.239436 0.265221
H  6.168071 -0.587064 26.457744 -0.296686 0.699431 0.257444
O  3.876582 10.770504 34.783965 -0.161780 -0.002650 -0.504895
C  5.044068 11.395432 35.250186 0.489532 0.642950 0.394220
C  6.265232 10.695711 34.563877 1.089674 0.845823 1.684053
C  5.745260 9.253893 34.655559 0.706418 -2.691400 -1.334013
C  4.188360 9.377199 34.648615 -1.719495 -0.933206 1.924616
H  5.081672 11.283191 36.375153 0.352650 0.173193 -0.722522
H  4.965685 12.458964 34.987010 0.008826 0.095085 0.104373
H  7.165364 10.954903 35.254322 -1.077100 -0.870443 -0.987344
H  7.245447 13.024402 34.230803 0.312477 0.200480 0.703840
H  6.242047 8.599439 35.477758 -1.092787 1.244966 -0.977898
H  5.946312 8.661393 33.681580 0.261883 0.869418 1.264433
H  3.584191 8.922360 35.519035 1.382290 -0.084848 -0.722419
H  3.650350 8.938635 33.771209 0.645332 0.565441 0.041158
O  4.349713 7.115002 25.992644 -0.550144 -0.552247 -1.749143
C  7.482623 10.641560 27.367850 1.760850 -4.052501 0.341183
C  6.173382 10.189800 26.975870 -1.318522 1.068518 0.754564
C  6.013830 8.741585 26.762141 -0.466608 -1.750757 -0.052612
C  4.580710 8.475681 26.334596 0.975756 -3.095812 0.442106
H  7.597071 11.570061 27.039977 0.871517 4.669007 -2.290780
H  5.848470 10.868476 26.108035 -0.678638 -1.006155 0.114570
H  4.468549 13.318402 25.235548 1.065727 0.948263 -0.527771
H  5.482870 10.465017 27.833909 -0.321455 -0.571333 -0.946733
H  6.152895 8.259900 27.752023 -0.003215 0.156947 0.001492
H  6.777052 8.137665 26.169064 -0.540359 1.063018 -0.119627
H  4.251247 9.105268 25.512118 -0.222006 0.843552 -0.109928
H  4.011391 8.596977 27.232932 -0.987858 1.116209 0.587037
O  6.956113 13.659443 27.551274 -1.420042 2.148380 0.526770
C  6.777455 15.112964 27.147423 -0.816564 0.111479 -0.524662
C  5.562966 15.673514 27.983729 2.156000 -0.904777 1.482528
C  4.732632 14.486472 28.508850 1.103099 -0.747406 0.544786
C  5.712918 13.323269 28.322533 -0.077568 -1.563135 -0.825929
H  6.383512 15.092955 26.121988 0.314819 -0.276441 -0.351070
H  7.746212 15.724576 27.085982 -1.080865 -1.039426 0.709832
H  5.039492 16.446725 27.470676 -0.576966 0.736258 -0.556530
H  6.030284 16.057594 28.905812 -0.302803 0.546739 -0.106082
H  3.817872 14.152866 27.996966 -0.182234 0.539403 0.319007
H  4.475756 14.561489 29.621726 0.042658 0.103901 -1.535947
H  5.293776 12.383060 27.816140 -0.046480 1.351534 0.510399
H  6.036413 12.989129 29.334685 -0.825845 0.833446 0.613462
O  9.420733 12.457859 28.198473 -0.060763 -0.281193 -0.209885
C  10.871732 12.216086 28.167382 -0.794166 1.706662 1.046430
C  11.232342 13.144563 29.332501 1.263628 -0.019115 -0.397830
C  10.209070 12.847284 30.419402 0.234777 0.473693 -0.530405
C  8.985175 12.484467 29.605289 3.131563 0.212621 0.015162
H  11.307738 12.433810 27.182132 -0.408367 0.860561 -0.136275
H  11.090978 11.197504 28.252159 0.014414 -1.965192 0.847714
H  11.101981 14.126393 28.935168 -0.250898 1.146669 -0.326779
H  12.269146 13.155827 29.686435 0.103037 -0.482660 0.124525
H  10.052018 13.659559 31.135835 0.059665 -0.072701 0.019849
H  10.566132 11.967749 30.887109 0.273187 -1.029795 1.231275
H  8.235751 13.268670 29.622933 -0.171236 0.892315 0.556880
H  8.625630 11.462561 29.912662 0.647039 0.171658 0.475455
O  9.438677 8.750850 28.700582 -0.095788 -1.163628 -1.295389
C  9.402520 7.422524 28.071881 0.607227 0.853868 1.166099
C  9.030925 6.474551 29.226102 1.581265 -1.658277 -0.717549
C  9.216165 7.215266 30.545706 -0.130985 0.543308 0.257475
C  9.858575 8.509694 30.029719 1.949601 -0.135770 -0.249439
H  10.332191 7.247933 27.509594 0.588462 -0.252918 0.563619
H  8.693004 7.357713 27.290057 -1.460492 0.523899 -0.891617
H  9.675948 5.556651 29.159430 -0.277417 0.639347 0.280299
H  8.064659 6.067241 29.052298 -1.283497 -0.135427 0.081502
H  9.801743 6.625591 31.288040 -0.095397 0.515983 -0.414070
H  8.268218 7.530077 31.016303 -0.040751 -0.402603 -0.231846
H  10.981759 8.477605 30.018845 -0.449845 -0.266919 0.392160
H  9.587058 9.413185 30.514737 -0.423831 0.909565 1.185759
Al 9.280060 0.922773 31.031232 -1.067983 -1.452784 0.517416
Cl 9.834350 -0.117163 29.227873 -0.254014 -0.334203 -0.133395
Cl 8.313784 2.686144 30.252377 -0.081705 0.613595 0.190427
C  10.935328 1.109529 31.962584 0.593156 1.403909 0.222062
C  11.664386 0.063330 32.389418 0.612699 -0.066940 0.204147
C  13.028813 0.113507 33.128552 -1.299438 -0.632755 -0.607972
C  13.599949 1.583314 33.205665 1.096609 -1.426010 -2.347041
C  12.809015 2.638908 32.425449 1.006735 0.612716 0.359173
C  11.550082 2.452845 32.003924 -0.504633 -0.912191 -0.156472
H  11.212387 -0.911650 32.316159 0.142553 -0.467241 -0.162769
H  13.734515 -0.627310 32.552901 -1.108864 1.189935 1.135763
H  14.660875 1.402503 32.780077 -1.161521 1.056233 0.794389
H  13.274678 3.624023 32.309811 -0.010991 -0.122821 0.243753
H  10.896062 3.250718 31.632346 0.507794 0.250459 0.019244
C  7.810188 -0.082437 32.045112 0.644795 -0.511242 -0.581588
C  6.936960 0.698936 32.783164 -0.781452 2.469074 1.734436
C  5.867248 0.218432 33.563347 -0.389725 -0.749032 0.027309
C  5.548072 -1.169819 33.485492 -0.277060 0.560573 0.861948
C  6.383257 -2.013421 32.741147 0.105053 -0.348148 -0.031514
C  7.536699 -1.468558 32.107932 -0.505803 -1.314857 -0.635702
H  7.089426 1.823250 32.939646 0.088868 -1.409669 -0.705077
H  5.304068 0.920376 34.229697 0.364831 -0.704629 -0.680123
H  4.723006 -1.593009 34.101939 0.442436 0.326720 -0.609451
H  6.125555 -3.111803 32.667522 0.483107 1.224241 0.073161
H  8.137314 -2.246743 31.582853 -0.021080 0.875393 0.140678
172
Lattice="12.836 0 0 6.418 11.116 0 0 0 55" Properties=species:S:1:pos:R:3:forces:R:3 energy=-124884.554095 charge=-1 pbc="T T T" config_type=bias_bare_q-1_d4 net_charge=-1.0
Mg 0.000000 1.852717 16.000000 0.000000 0.000000 0.000000
Mg 3.209000 1.852717 16.000000 0.000000 0.000000 0.000000
Mg 6.418000 1.852717 16.000000 0.000000 0.000000 0.000000
Mg 9.627000 1.852717 16.000000 0.000000 0.000000 0.000000
Mg 1.604500 4.631793 16.000000 0.000000 0.000000 0.000000
Mg 4.813500 4.631793 16.000000 0.000000 0.000000 0.000000
Mg 8.022500 4.631793 16.000000 0.000000 0.000000 0.000000
Mg 11.231500 4.631793 16.000000 0.000000 0.000000 0.000000
Mg 3.209000 7.410868 16.000000 0.000000 0.000000 0.000000
Mg 6.418000 7.410868 16.000000 0.000000 0.000000 0.000000
Mg 9.627000 7.410868 16.000000 0.000000 0.000000 0.000000
Mg 12.836000 7.410868 16.000000 0.000000 0.000000 0.000000
Mg 4.813500 10.189944 16.000000 0.000000 0.000000 0.000000
Mg 8.022500 10.189944 16.000000 0.000000 0.000000 0.000000
Mg 11.231500 10.189944 16.000000 0.000000 0.000000 0.000000
Mg 14.440500 10.189944 16.000000 0.000000 0.000000 0.000000
Mg 0.000000 0.000000 18.605500 0.000000 0.000000 0.000000
Mg 3.209000 0.000000 18.605500 0.000000 0.000000 0.000000
Mg 6.418000 0.000000 18.605500 0.000000 0.000000 0.000000
Mg 9.627000 0.000000 18.605500 0.000000 0.000000 0.000000
Mg 1.604500 2.779076 18.605500 0.000000 0.000000 0.000000
Mg 4.813500 2.779076 18.605500 0.000000 0.000000 0.000000
Mg 8.022500 2.779076 18.605500 0.000000 0.000000 0.000000
Mg 11.231500 2.779076 18.605500 0.000000 0.000000 0.000000
Mg 3.209000 5.558151 18.605500 0.000000 0.000000 0.000000
Mg 6.418000 5.558151 18.605500 0.000000 0.000000 0.000000
Mg 9.627000 5.558151 18.605500 0.000000 0.000000 0.000000
Mg 12.836000 5.558151 18.605500 0.000000 0.000000 0.000000
Mg 4.813500 8.337227 18.605500 0.000000 0.000000 0.000000
Mg 8.022500 8.337227 18.605500 0.000000 0.000000 0.000000
Mg 11.231500 8.337227 18.605500 0.000000 0.000000 0.000000
Mg 14.440500 8.337227 18.605500 0.000000 0.000000 0.000000
Mg -1.635657 1.328947 21.136942 0.000000 0.000000 0.000000
Mg 1.828326 0.162982 22.460521 0.000000 0.000000 0.000000
Mg 4.430302 0.267700 21.449578 0.000000 0.000000 0.000000
Mg 8.111423 0.773130 20.901946 0.000000 0.000000 0.000000
Mg -0.244269 3.620722 21.861360 0.000000 0.000000 0.000000
Mg 3.094045 2.938961 21.805248 0.000000 0.000000 0.000000
Mg 6.521349 1.591824 23.476472 0.000000 0.000000 0.000000
Mg 6.307958 3.350716 21.472022 0.000000 0.000000 0.000000
Mg 1.777032 5.989533 21.046851 0.000000 0.000000 0.000000
Mg 4.169175 7.054054 21.297369 0.000000 0.000000 0.000000
Mg 9.337125 4.264120 21.510144 0.000000 0.000000 0.000000
Mg 11.245110 6.734711 20.937628 0.000000 0.000000 0.000000
Mg 3.183950 9.752487 21.071610 0.000000 0.000000 0.000000
Mg 6.187551 9.310318 20.867801 0.000000 0.000000 0.000000
Mg 8.962795 8.701045 21.368731 0.000000 0.000000 0.000000
Mg 12.933695 9.424824 21.771371 0.000000 0.000000 0.000000
Mg -1.466306 -0.983788 23.735168 0.000000 0.000000 0.000000
Mg 1.420330 -0.737104 25.379933 0.000000 0.000000 0.000000
Mg 5.257353 -0.899788 24.340298 0.000000 0.000000 0.000000
Mg 8.521068 -1.098160 24.155455 0.000000 0.000000 0.000000
Mg -0.206428 1.496129 24.427025 0.000000 0.000000 0.000000
Mg 3.664130 2.054409 24.812435 0.000000 0.000000 0.000000
Mg 7.913781 1.979163 26.260035 0.000000 0.000000 0.000000
Mg 9.464127 2.385766 23.328256 0.000000 0.000000 0.000000
Mg 1.679948 4.550164 23.829968 0.000000 0.000000 0.000000
Mg 4.862829 5.266967 24.249645 0.000000 0.000000 0.000000
Mg 7.874085 4.824392 24.388482 0.000000 0.000000 0.000000
Mg 10.937293 4.727119 23.909733 0.000000 0.000000 0.000000
Mg 2.934604 7.439701 23.827084 0.000000 0.000000 0.000000
Mg 6.523770 7.820752 23.462169 0.000000 0.000000 0.000000
Mg 9.671354 7.798644 24.256791 0.000000 0.000000 0.000000
Mg 12.839404 7.225372 23.577809 0.000000 0.000000 0.000000
Mg 6.736193 12.295794 28.451507 -0.770989 -0.478501 2.763225
Mg 22.781388 3.521401 25.270225 -3.460966 -1.378394 9.259223
Cl 6.134524 11.875202 30.600113 -0.087348 -0.132780 0.728503
Cl 3.586836 11.938660 25.232266 0.225249 -0.900422 0.398341
Cl -9.955302 5.386206 25.773098 0.168223 0.237112 0.927403
O  8.108894 -1.577228 26.334130 -0.593909 0.558317 1.120864
C  8.514364 -2.669760 27.219643 -1.650270 0.555248 1.664552
C  7.154299 -3.335192 27.608481 -0.645342 0.511424 0.883054
C  6.090802 -2.120800 27.711761 3.412951 0.406859 1.186164
C  7.044279 -0.952190 27.144941 -3.045114 -0.630374 -1.634678
H  8.921075 -2.237334 28.173480 0.247167 -0.206795 -0.874822
H  9.205425 -3.315586 26.713686 0.385787 -0.342437 -0.268555
H  7.167498 -3.751665 28.670296 0.289073 -0.270082 -1.552693
H  6.880482 -4.016269 26.776823 -0.071990 -0.109451 0.657261
H  5.879236 -1.860219 28.781590 0.212282 -0.346278 -0.599575
H  5.138457 -2.291563 27.252156 -0.447550 -0.000131 -1.000795
H  7.436127 -0.323043 27.926120 0.383416 0.005599 0.449682
H  6.355401 -0.331284 26.481857 1.217856 -0.247145 0.399844
O  0.356487 14.077705 35.892823 -0.742258 0.509818 0.630363
C  1.263361 14.523095 34.898435 0.667349 -2.450841 -0.956290
C  2.439047 13.511438 35.021541 1.267114 0.635001 0.665368
C  1.788078 12.175789 35.394086 -1.096692 1.086827 -0.541621
C  0.583629 12.705902 36.220519 0.274066 -0.798651 -0.915303
H  1.587363 15.506219 35.092147 0.297108 1.568624 0.412336
H  0.827049 14.472238 33.885353 -0.054566 0.015858 0.051300
H  3.081146 13.834116 35.890668 -0.815096 -0.053604 -0.156817
H  3.984100 15.452141 34.496223 0.060758 0.570626 0.452777
H  2.485348 11.575709 35.983620 -0.167774 -0.409442 -0.206400
H  1.376817 11.695801 34.484909 0.571585 -0.239792 0.313470
H  0.855089 12.591273 37.244592 -0.085505 0.227943 1.392328
H  -0.326763 12.133180 36.017674 -0.169084 -0.070158 0.045712
O  4.928142 7.412316 24.229913 -1.884027 0.922749 2.143143
C  6.346516 10.722700 26.984853 -0.094753 -0.815678 -0.124259
C  5.523496 9.438069 27.405153 2.625279 -0.755778 1.615992
C  5.626056 8.121231 26.513172 -1.473669 -0.221230 1.324761
C  5.108742 8.551835 25.198348 0.308737 -2.442873 0.670072
H  5.614404 11.319567 26.467159 -0.515518 0.492968 -0.547649
H  4.472135 9.672786 27.508788 -0.545300 0.093960 -0.015235
H  3.316471 11.651713 20.448171 0.543577 -0.588340 -0.608804
H  5.885110 9.142265 28.449731 -0.596872 0.202878 -1.048359
H  4.950068 7.300137 26.927534 0.496828 0.933842 -0.286438
H  6.558051 7.578668 26.330298 0.708929 0.433346 0.470672
H  6.015239 9.166233 24.771484 -0.608463 -0.209654 0.976760
H  4.150963 9.080184 25.382413 0.103324 0.191901 -0.313511
O  6.250180 14.344568 28.239753 -0.020500 -0.494363 -0.779067
C  6.083309 15.124484 27.007271 0.348126 0.689875 0.680321
C  4.911545 16.030310 27.356850 -0.622043 1.976157 -1.857174
C  4.837352 16.239539 28.851307 0.377269 -2.461639 -0.291521
C  5.538060 14.983154 29.369218 2.040411 -0.095346 0.897273
H  5.930277 14.439347 26.132826 -0.016127 0.331477 0.590078
H  7.006906 15.731148 26.786279 -0.548534 -0.557624 0.285522
H  3.898526 15.630544 26.985463 1.069349 0.431888 0.691446
H  5.017448 17.057689 26.868966 -0.237098 -1.284808 0.102457
H  3.809610 16.172539 29.091778 -1.349084 0.163431 0.661404
H  5.227279 17.146634 29.219745 0.800039 1.220476 0.375606
H  4.963579 14.185657 29.829435 -0.645316 0.049115 0.044351
H  6.412084 15.138193 30.047786 -0.813494 0.486266 0.113971
O  8.749335 12.455415 28.396109 0.749097 0.140273 -0.605645
C  9.462451 13.546127 27.732626 -0.167195 0.732689 1.826357
C  9.727835 14.570482 28.888640 1.528956 -1.170375 -0.975727
C  9.799767 13.659379 30.130086 0.848750 0.842651 0.346085
C  9.476618 12.259822 29.607204 -0.745181 0.128583 1.669131
H  8.746533 13.883832 27.023637 -0.296650 0.582794 -1.171567
H  10.428135 13.207336 27.336722 -0.048365 -0.244479 -0.216371
H  8.979441 15.294131 28.977054 -1.725160 1.085869 -0.018817
H  10.649621 15.150876 28.714174 -0.035351 -0.335076 -0.032257
H  9.090992 14.085048 30.871202 0.294957 -0.733181 -0.042647
H  10.851467 13.677197 30.508100 -0.794801 0.054184 0.151688
H  8.796011 11.759225 30.325925 0.373771 -0.290651 -0.387527
H  10.373193 11.695306 29.382942 0.367044 -0.349200 0.016806
O  5.589236 7.647066 30.605715 0.177719 0.025434 0.279574
C  5.235734 8.102589 31.983659 1.376995 0.266900 -1.809096
C  6.585146 8.185033 32.708034 -0.859283 0.383339 -0.937032
C  7.319781 7.029439 32.073357 2.410558 -0.612713 0.033179
C  6.983386 7.240159 30.568435 -0.058458 -1.063196 0.352177
H  4.556372 7.404305 32.422988 -0.503987 -0.902744 0.449217
H  4.706641 9.017108 31.793163 -0.212322 0.982396 0.275791
H  6.420518 8.177111 33.749906 -0.004912 -0.429344 1.672497
H  7.103996 9.127874 32.503675 -0.078397 0.116170 -0.324397
H  7.105462 6.003299 32.444393 -0.750415 0.489791 -0.291910
H  8.425916 7.046312 32.328048 -0.775893 0.425053 -0.588506
H  7.051226 6.302834 29.979782 -0.213534 -0.004361 0.282988
H  7.664044 7.925585 30.013545 -0.495858 0.377505 0.568428
Al 8.204847 1.418387 29.976494 -0.621694 0.340324 0.036865
Cl 9.510987 1.200632 28.214856 0.231056 0.093263 0.471436
Cl 6.484513 2.686212 29.062586 1.000218 -0.549939 0.049200
C  8.949981 2.422839 31.489921 0.870495 -0.391988 0.316264
C  9.374620 1.714012 32.577211 -0.531313 0.206774 1.091776
C  9.914813 2.338536 33.928673 -0.222995 -0.119775 -3.134390
C  10.471658 3.763411 33.578546 -0.225471 0.053575 0.756020
C  9.895296 4.524660 32.420939 -0.675741 -0.353220 -0.556290
C  9.244599 3.856114 31.450747 -0.464484 -0.158970 0.268381
H  9.189629 0.637991 32.647490 0.061611 0.044100 -0.198566
H  10.718966 1.640776 34.246889 -0.105108 0.531239 0.045780
H  11.517818 3.726974 33.358397 1.269113 -0.357731 -0.051462
H  10.024026 5.599976 32.238650 0.372203 -0.275520 0.596288
H  8.891827 4.395758 30.591640 -0.283569 0.375401 -0.420526
C  7.447522 -0.322910 30.530789 -2.155375 0.188734 1.621900
C  6.074277 -0.273898 31.050613 0.034481 -0.065507 0.235466
C  5.420476 -1.402629 31.655587 -0.336285 1.831996 -1.445659
C  6.110696 -2.611013 31.807077 -0.872979 0.618177 0.848537
C  7.464714 -2.666696 31.478271 -1.247764 2.156748 -0.831640
C  8.080830 -1.523058 30.847697 0.554776 -2.021374 0.203552
H  5.482166 0.688775 31.066524 0.754023 -0.984036 -0.399959
H  4.308885 -1.272658 31.797751 1.218792 -0.411242 0.357507
H  5.530593 -3.363492 32.356841 0.575310 -0.436566 -0.441663
H  7.920324 -3.597859 31.614685 1.359843 -1.192430 0.179633
H  9.128267 -1.708176 30.594708 0.040379 0.328219 -0.201853
172
Lattice="12.836 0 0 6.418 11.116 0 0 0 55" Properties=species:S:1:pos:R:3:forces:R:3 energy=-124886.149053 charge=-1 pbc="T T T" config_type=bias_bare_q-1_d4 net_charge=-1.0
Mg 0.000000 1.852717 16.000000 0.000000 0.000000 0.000000
Mg 3.209000 1.852717 16.000000 0.000000 0.000000 0.000000
Mg 6.418000 1.852717 16.000000 0.000000 0.000000 0.000000
Mg 9.627000 1.852717 16.000000 0.000000 0.000000 0.000000
Mg 1.604500 4.631793 16.000000 0.000000 0.000000 0.000000
Mg 4.813500 4.631793 16.000000 0.000000 0.000000 0.000000
Mg 8.022500 4.631793 16.000000 0.000000 0.000000 0.000000
Mg 11.231500 4.631793 16.000000 0.000000 0.000000 0.000000
Mg 3.209000 7.410868 16.000000 0.000000 0.000000 0.000000
Mg 6.418000 7.410868 16.000000 0.000000 0.000000 0.000000
Mg 9.627000 7.410868 16.000000 0.000000 0.000000 0.000000
Mg 12.836000 7.410868 16.000000 0.000000 0.000000 0.000000
Mg 4.813500 10.189944 16.000000 0.000000 0.000000 0.000000
Mg 8.022500 10.189944 16.000000 0.000000 0.000000 0.000000
Mg 11.231500 10.189944 16.000000 0.000000 0.000000 0.000000
Mg 14.440500 10.189944 16.000000 0.000000 0.000000 0.000000
Mg 0.000000 0.000000 18.605500 0.000000 0.000000 0.000000
Mg 3.209000 0.000000 18.605500 0.000000 0.000000 0.000000
Mg 6.418000 0.000000 18.605500 0.000000 0.000000 0.000000
Mg 9.627000 0.000000 18.605500 0.000000 0.000000 0.000000
Mg 1.604500 2.779076 18.605500 0.000000 0.000000 0.000000
Mg 4.813500 2.779076 18.605500 0.000000 0.000000 0.000000
Mg 8.022500 2.779076 18.605500 0.000000 0.000000 0.000000
Mg 11.231500 2.779076 18.605500 0.000000 0.000000 0.000000
Mg 3.209000 5.558151 18.605500 0.000000 0.000000 0.000000
Mg 6.418000 5.558151 18.605500 0.000000 0.000000 0.000000
Mg 9.627000 5.558151 18.605500 0.000000 0.000000 0.000000
Mg 12.836000 5.558151 18.605500 0.000000 0.000000 0.000000
Mg 4.813500 8.337227 18.605500 0.000000 0.000000 0.000000
Mg 8.022500 8.337227 18.605500 0.000000 0.000000 0.000000
Mg 11.231500 8.337227 18.605500 0.000000 0.000000 0.000000
Mg 14.440500 8.337227 18.605500 0.000000 0.000000 0.000000
Mg -1.635657 1.328947 21.136942 0.000000 0.000000 0.000000
Mg 1.828326 0.162982 22.460521 0.000000 0.000000 0.000000
Mg 4.430302 0.267700 21.449578 0.000000 0.000000 0.000000
Mg 8.111423 0.773130 20.901946 0.000000 0.000000 0.000000
Mg -0.244269 3.620722 21.861360 0.000000 0.000000 0.000000
Mg 3.094045 2.938961 21.805248 0.000000 0.000000 0.000000
Mg 6.521349 1.591824 23.476472 0.000000 0.000000 0.000000
Mg 6.307958 3.350716 21.472022 0.000000 0.000000 0.000000
Mg 1.777032 5.989533 21.046851 0.000000 0.000000 0.000000
Mg 4.169175 7.054054 21.297369 0.000000 0.000000 0.000000
Mg 9.337125 4.264120 21.510144 0.000000 0.000000 0.000000
Mg 11.245110 6.734711 20.937628 0.000000 0.000000 0.000000
Mg 3.183950 9.752487 21.071610 0.000000 0.000000 0.000000
Mg 6.187551 9.310318 20.867801 0.000000 0.000000 0.000000
Mg 8.962795 8.701045 21.368731 0.000000 0.000000 0.000000
Mg 12.933695 9.424824 21.771371 0.000000 0.000000 0.000000
Mg -1.466306 -0.983788 23.735168 0.000000 0.000000 0.000000
Mg 1.420330 -0.737104 25.379933 0.000000 0.000000 0.000000
Mg 5.257353 -0.899788 24.340298 0.000000 0.000000 0.000000
Mg 8.521068 -1.098160 24.155455 0.000000 0.000000 0.000000
Mg -0.206428 1.496129 24.427025 0.000000 0.000000 0.000000
Mg 3.664130 2.054409 24.812435 0.000000 0.000000 0.000000
Mg 7.913781 1.979163 26.260035 0.000000 0.000000 0.000000
Mg 9.464127 2.385766 23.328256 0.000000 0.000000 0.000000
Mg 1.679948 4.550164 23.829968 0.000000 0.000000 0.000000
Mg 4.862829 5.266967 24.249645 0.000000 0.000000 0.000000
Mg 7.874085 4.824392 24.388482 0.000000 0.000000 0.000000
Mg 10.937293 4.727119 23.909733 0.000000 0.000000 0.000000
Mg 2.934604 7.439701 23.827084 0.000000 0.000000 0.000000
Mg 6.523770 7.820752 23.462169 0.000000 0.000000 0.000000
Mg 9.671354 7.798644 24.256791 0.000000 0.000000 0.000000
Mg 12.839404 7.225372 23.577809 0.000000 0.000000 0.000000
Mg 6.903719 11.580937 28.700790 3.195876 1.887582 2.446905
Mg 23.874814 7.802904 30.215151 3.331120 1.239370 -4.919111
Cl 6.436812 11.061301 31.010487 0.124987 0.114376 -0.450679
Cl 3.806209 11.974678 25.310696 -0.001509 0.025476 0.014424
Cl -9.932123 5.355596 26.036367 0.256966 0.049415 -0.050298
O  8.042606 -1.194023 26.302861 -0.462880 0.913965 0.715567
C  8.779345 -2.081312 27.269179 -1.423781 0.409639 -1.075163
C  7.697599 -3.090659 27.494353 -1.397729 -1.314232 -0.376373
C  6.312431 -2.317142 27.578754 0.631948 -1.170150 -1.005143
C  6.679511 -1.019766 26.873063 0.164503 0.647182 -0.295388
H  9.038009 -1.430091 28.128754 0.563942 -0.627496 -0.434022
H  9.542019 -2.553656 26.628321 0.380707 0.468432 0.792329
H  7.851840 -3.700680 28.388825 0.113653 -0.174130 -0.063559
H  7.634302 -3.762638 26.559599 0.241946 0.794490 1.348528
H  6.085597 -2.123841 28.661442 -0.315699 -0.216789 -0.843662
H  5.553775 -2.992780 26.972094 0.873405 1.534916 1.378544
H  6.642440 -0.110464 27.521409 0.273192 -0.518749 0.050457
H  6.033950 -0.660205 26.025413 0.463208 -0.391626 0.907175
O  3.601998 14.273127 35.051252 -1.289145 0.425231 0.267449
C  3.242573 15.638835 34.727024 1.233668 0.380712 -0.413267
C  4.347314 16.186482 33.718403 0.291319 -1.331431 0.539639
C  5.408153 15.004135 33.740761 0.900622 0.986616 1.779444
C  4.997466 14.193501 35.029890 0.581033 -1.588530 -2.982035
H  3.174083 16.299872 35.606989 0.121964 -0.261788 0.165007
H  2.284063 15.618319 34.246677 -0.854394 -0.176089 -0.304768
H  4.818746 17.070893 34.095231 0.314775 0.798044 0.648914
H  1.824616 17.209463 32.620360 0.222651 0.286300 -0.953587
H  6.481478 15.317945 33.915833 -0.960909 0.159363 -0.542525
H  5.371306 14.424616 32.822806 -0.130120 -0.403964 -0.088047
H  5.441116 14.510192 35.941219 0.668422 0.798878 1.063941
H  5.308209 13.121056 34.854624 -0.460966 0.679171 0.363357
O  4.891737 7.409391 24.120476 -1.763305 -0.149166 2.605333
C  6.334672 10.425675 27.005510 0.044294 -0.077937 -0.323296
C  6.113856 8.977496 27.444252 0.218612 -0.010996 0.646465
C  5.776935 7.895757 26.412039 -1.633996 -2.663921 3.069648
C  5.152863 8.357673 25.186649 1.640956 -0.319975 -0.167570
H  5.420021 10.846993 26.547214 0.279541 -0.428017 0.475310
H  5.335667 8.882908 28.206391 -0.597576 0.458654 0.089358
H  3.236186 11.747361 20.340104 1.100578 -0.409276 -0.503611
H  6.940466 8.546181 28.037145 0.414657 0.257287 -0.255744
H  5.131899 7.154511 27.000306 -0.023274 0.738213 -0.836340
H  6.573339 7.190809 26.238918 1.116683 0.041381 -0.811523
H  6.066523 9.011466 24.863844 -0.503118 -0.032814 0.073334
H  4.384218 9.100620 25.300875 -1.200349 0.107674 0.684672
O  6.940360 13.599162 28.466875 -0.072646 -0.341573 -0.123902
C  6.539499 14.371637 27.296598 -0.313980 -0.072033 -0.157532
C  5.777402 15.541300 27.877130 0.088751 -0.441857 0.329672
C  6.355280 15.792415 29.236469 -0.123215 -0.794825 0.992968
C  6.847222 14.440257 29.671118 -0.894675 -2.143360 1.012353
H  5.810354 13.809173 26.610676 1.279339 0.238280 0.837451
H  7.508965 14.646419 26.870165 -0.353707 0.109944 -0.826605
H  4.769442 15.239200 28.008873 -1.411774 -0.208118 -0.112616
H  5.840330 16.395785 27.262979 -0.082133 1.239404 -1.053984
H  5.690079 16.236082 29.999670 -0.048307 -0.105001 -0.414587
H  7.228702 16.365433 29.179492 1.370153 1.568309 -0.211081
H  6.195943 13.800000 30.316978 -0.073029 0.923064 -0.001475
H  7.816358 14.402192 30.158067 0.535367 0.361746 0.029703
O  9.026567 11.348524 28.191045 -0.248708 0.796360 -0.368659
C  10.088132 12.381688 28.256847 -1.336228 0.636674 0.685961
C  10.416413 12.459313 29.773313 -4.107999 0.174521 0.385249
C  9.965401 10.989276 30.344611 -0.809073 1.900054 -0.347536
C  9.439205 10.302422 29.060086 1.045278 -0.872129 0.238274
H  9.553489 13.276035 27.764218 1.227573 -0.961206 0.743781
H  11.001730 12.081617 27.747309 -0.107761 -0.211035 -0.746391
H  9.663269 13.239253 30.196732 1.411171 -1.082766 -0.289493
H  11.410526 12.754071 29.976117 1.155547 0.177737 0.353140
H  9.164112 11.054630 31.167056 0.948459 0.025004 -1.306469
H  10.840808 10.554621 30.765897 0.905695 -0.785572 0.388502
H  8.614044 9.591278 29.258026 0.034158 0.341389 -0.202617
H  10.208242 9.772169 28.438592 -0.105948 -0.085881 0.866256
O  3.146604 6.994585 29.764998 -1.391338 -0.067582 -0.960253
C  3.910123 7.975870 30.433137 2.300562 0.773730 -1.032955
C  5.237909 7.263033 30.866026 -0.266886 -0.299984 0.853027
C  5.156621 5.878181 30.161895 1.757690 -1.282654 -0.506020
C  3.692885 5.656643 29.870021 -0.018278 1.341875 1.421121
H  3.436313 8.527074 31.239141 -0.653734 -0.414360 0.598596
H  4.153044 8.810981 29.707663 -0.150230 -0.720834 0.309308
H  5.192574 7.050981 31.966007 0.074818 0.289724 -0.605539
H  6.152603 7.880901 30.711789 -0.512346 -0.404493 -0.202003
H  5.475070 5.041362 30.847491 0.208856 0.722402 -0.518639
H  5.761805 5.709179 29.180778 -0.782477 0.732016 1.629319
H  3.132326 5.186270 30.686541 0.163587 -0.397470 0.139281
H  3.584266 5.085783 28.975290 -0.583479 -0.232497 -1.109109
Al 8.250290 2.568558 29.786445 0.722889 1.406211 -1.464838
Cl 9.672955 1.554601 28.249336 -0.486973 0.322923 0.562099
Cl 6.529402 3.004011 28.236098 0.467788 -0.049711 0.246702
C  9.056229 4.289954 30.390946 -0.774808 -0.830709 1.000947