172
Lattice="12.836 0 0 6.418 11.116 0 0 0 55" Properties=species:S:1:pos:R:3:forces:R:3 energy=-124866.352322 charge=0  pbc="T T T" config_type=ladder_bare_q0_d3 net_charge=0.0
Mg 0.000000 1.852717 16.000000 0.000000 0.000000 0.000000
Mg 3.209000 1.852717 16.000000 0.000000 0.000000 0.000000
Mg 6.418000 1.852717 16.000000 0.000000 0.000000 0.000000
Mg 9.627000 1.852717 16.000000 0.000000 0.000000 0.000000
Mg 1.604500 4.631793 16.000000 0.000000 0.000000 0.000000
Mg 4.813500 4.631793 16.000000 0.000000 0.000000 0.000000
Mg 8.022500 4.631793 16.000000 0.000000 0.000000 0.000000
Mg 11.231500 4.631793 16.000000 0.000000 0.000000 0.000000
Mg 3.209000 7.410868 16.000000 0.000000 0.000000 0.000000
Mg 6.418000 7.410868 16.000000 0.000000 0.000000 0.000000
Mg 9.627000 7.410868 16.000000 0.000000 0.000000 0.000000
Mg 12.836000 7.410868 16.000000 0.000000 0.000000 0.000000
Mg 4.813500 10.189944 16.000000 0.000000 0.000000 0.000000
Mg 8.022500 10.189944 16.000000 0.000000 0.000000 0.000000
Mg 11.231500 10.189944 16.000000 0.000000 0.000000 0.000000
Mg 14.440500 10.189944 16.000000 0.000000 0.000000 0.000000
Mg 0.000000 0.000000 18.605500 0.000000 0.000000 0.000000
Mg 3.209000 0.000000 18.605500 0.000000 0.000000 0.000000
Mg 6.418000 0.000000 18.605500 0.000000 0.000000 0.000000
Mg 9.627000 0.000000 18.605500 0.000000 0.000000 0.000000
Mg 1.604500 2.779076 18.605500 0.000000 0.000000 0.000000
Mg 4.813500 2.779076 18.605500 0.000000 0.000000 0.000000
Mg 8.022500 2.779076 18.605500 0.000000 0.000000 0.000000
Mg 11.231500 2.779076 18.605500 0.000000 0.000000 0.000000
Mg 3.209000 5.558151 18.605500 0.000000 0.000000 0.000000
Mg 6.418000 5.558151 18.605500 0.000000 0.000000 0.000000
Mg 9.627000 5.558151 18.605500 0.000000 0.000000 0.000000
Mg 12.836000 5.558151 18.605500 0.000000 0.000000 0.000000
Mg 4.813500 8.337227 18.605500 0.000000 0.000000 0.000000
Mg 8.022500 8.337227 18.605500 0.000000 0.000000 0.000000
Mg 11.231500 8.337227 18.605500 0.000000 0.000000 0.000000
Mg 14.440500 8.337227 18.605500 0.000000 0.000000 0.000000
Mg -1.635657 1.328947 21.136942 0.000000 0.000000 0.000000
Mg 1.828326 0.162982 22.460521 0.000000 0.000000 0.000000
Mg 4.430302 0.267700 21.449578 0.000000 0.000000 0.000000
Mg 8.111423 0.773130 20.901946 0.000000 0.000000 0.000000
Mg -0.244269 3.620722 21.861360 0.000000 0.000000 0.000000
Mg 3.094045 2.938961 21.805248 0.000000 0.000000 0.000000
Mg 6.521349 1.591824 23.476472 0.000000 0.000000 0.000000
Mg 6.307958 3.350716 21.472022 0.000000 0.000000 0.000000
Mg 1.777032 5.989533 21.046851 0.000000 0.000000 0.000000
Mg 4.169175 7.054054 21.297369 0.000000 0.000000 0.000000
Mg 9.337125 4.264120 21.510144 0.000000 0.000000 0.000000
Mg 11.245110 6.734711 20.937628 0.000000 0.000000 0.000000
Mg 3.183950 9.752487 21.071610 0.000000 0.000000 0.000000
Mg 6.187551 9.310318 20.867801 0.000000 0.000000 0.000000
Mg 8.962795 8.701045 21.368731 0.000000 0.000000 0.000000
Mg 12.933695 9.424824 21.771371 0.000000 0.000000 0.000000
Mg -1.466306 -0.983788 23.735168 0.000000 0.000000 0.000000
Mg 1.420330 -0.737104 25.379933 0.000000 0.000000 0.000000
Mg 5.257353 -0.899788 24.340298 0.000000 0.000000 0.000000
Mg 8.521068 -1.098160 24.155455 0.000000 0.000000 0.000000
Mg -0.206428 1.496129 24.427025 0.000000 0.000000 0.000000
Mg 3.664130 2.054409 24.812435 0.000000 0.000000 0.000000
Mg 7.913781 1.979163 26.260035 0.000000 0.000000 0.000000
Mg 9.464127 2.385766 23.328256 0.000000 0.000000 0.000000
Mg 1.679948 4.550164 23.829968 0.000000 0.000000 0.000000
Mg 4.862829 5.266967 24.249645 0.000000 0.000000 0.000000
Mg 7.874085 4.824392 24.388482 0.000000 0.000000 0.000000
Mg 10.937293 4.727119 23.909733 0.000000 0.000000 0.000000
Mg 2.934604 7.439701 23.827084 0.000000 0.000000 0.000000
Mg 6.523770 7.820752 23.462169 0.000000 0.000000 0.000000
Mg 9.671354 7.798644 24.256791 0.000000 0.000000 0.000000
Mg 12.839404 7.225372 23.577809 0.000000 0.000000 0.000000
Mg 5.861882 10.676978 27.863940 1.555217 -2.050042 -0.438083
Mg 19.878059 3.286305 25.267687 -8.643894 1.800692 1.789612
Cl 6.903628 9.798392 29.850297 -0.302889 0.343436 -0.223046
Cl 4.101491 11.884579 25.572635 -0.068887 0.338345 -1.037918
Cl -3.676515 3.902495 26.763700 0.242066 0.090716 0.329672
O  8.148412 -2.109242 26.125667 1.996474 -1.399901 1.964459
C  9.144733 -2.967762 26.932775 -0.782869 -3.949421 -6.560137
C  8.296973 -4.103526 27.522973 5.632580 -3.793074 -1.412537
C  7.184708 -3.418763 27.952026 -8.179012 -4.707717 -9.378044
C  6.864838 -2.580913 26.633675 -1.225140 2.779243 0.875301
H  9.745142 -2.520188 27.564949 2.470302 3.263256 3.484516
H  9.964446 -3.348458 26.079791 -2.019444 0.713151 1.756532
H  8.892980 -4.790164 28.270829 -0.835988 1.611909 -0.793677
H  8.069381 -4.866027 26.719447 0.118244 0.787158 0.262599
H  7.201312 -2.996757 28.769198 -0.057948 4.739951 8.263156
H  6.178641 -4.207245 27.842642 2.536339 2.042631 1.178669
H  6.401748 -1.479733 26.850346 -0.116658 -3.171130 -0.555441
H  6.359866 -3.215947 25.792368 0.455946 0.983599 1.600814
O  -0.713619 13.245461 34.584017 0.161428 0.352351 -1.737829
C  -0.101145 13.894961 33.265673 3.523712 -4.032684 4.404412
C  1.412517 14.111879 33.765808 -0.681930 0.264090 -2.136629
C  1.702172 12.757499 34.436743 -1.481190 -0.368746 0.593709
C  0.155701 12.178729 34.920270 2.740478 3.809115 1.800889
H  -0.536327 14.787729 33.254768 -2.576037 3.542817 -1.133654
H  -0.099563 13.085040 32.555654 -0.489005 0.349227 -1.032449
H  1.411584 14.954680 34.565123 0.289901 -1.070013 -1.559178
H  1.983303 16.641642 32.664393 0.419693 -2.066873 -3.789545
H  2.495552 12.929274 35.172149 -0.280339 -0.586327 0.430094
H  1.920904 11.899746 33.816489 0.949925 0.196512 -0.865410
H  0.105589 11.937289 35.992914 -0.042097 0.671479 0.217456
H  -0.004800 11.259877 34.495867 -0.640661 -2.369829 -2.145865
O  6.459487 5.306762 25.821426 -1.826266 -0.573748 -0.237493
C  6.243395 9.409106 26.271887 -2.242015 -2.931352 0.031179
C  6.925945 8.101741 26.785048 5.702602 0.955528 -1.225834
C  6.247883 6.981835 27.473231 -4.174461 4.210994 -0.333879
C  5.456260 6.179998 26.559090 2.090708 -3.566373 1.433879
H  5.196799 8.918746 26.026204 1.266905 1.709878 -0.029267
H  7.977278 8.434828 27.421174 -2.785900 -1.015120 -1.612088
H  22.798216 55.308198 71.930245 -0.732469 0.315725 -0.329902
H  7.396362 7.523831 25.815728 -0.450506 1.126919 1.831334
H  5.541420 7.406167 28.223637 -0.126286 0.294240 -0.094735
H  6.788558 6.434666 28.082585 3.385212 -3.096670 2.643831
H  4.950336 6.730323 25.880806 -1.280335 2.521260 -2.726444
H  4.589209 5.697033 27.048012 0.672938 -0.977730 0.041675
O  6.209819 12.573761 28.002482 0.529879 3.543050 2.259303
C  6.246261 13.825376 27.252071 2.252949 -3.063355 -4.727593
C  6.533980 14.928095 28.067166 3.860607 6.234162 -0.204651
C  6.384230 14.470710 29.492846 3.119140 10.708946 2.071974
C  5.870272 13.281468 29.340520 -5.316457 -11.495176 3.875786
H  5.386025 13.817976 26.686488 -2.669631 0.587508 -0.819612
H  7.032523 13.757317 26.390617 -0.519878 -0.326651 1.314963
H  5.940339 15.857206 27.814848 0.061896 -1.049345 0.204587
H  7.695337 15.352969 27.806480 -2.958589 -1.353454 0.968267
H  5.784373 15.313435 30.076358 0.174853 -1.883166 -1.095660
H  7.319661 14.622539 30.073193 0.107811 -0.813150 -0.553515
H  4.709775 13.169507 29.601757 2.002449 0.368865 -1.398883
H  6.294513 12.586085 30.148768 -0.493446 0.136887 -1.153681
O  9.504180 14.126146 27.448239 2.093661 -2.764278 0.945484
C  9.765789 12.612599 27.713307 -7.058668 1.038546 3.373183
C  9.839382 12.399881 29.378856 0.547687 1.792399 -3.621255
C  10.123260 13.927462 29.686807 2.866834 -4.359642 4.846476
C  10.323604 14.686192 28.542823 0.189062 5.907692 -4.688760
H  10.441335 12.134174 27.125946 2.567312 -1.038334 -1.702858
H  8.692273 12.202167 27.495693 1.863414 0.334272 -0.192607
H  10.783697 11.894739 29.532194 -0.082955 -0.772205 0.392348
H  8.921640 11.897433 29.771453 0.710423 0.451267 -0.177428
H  11.085853 13.786842 30.379201 -1.737519 1.140216 -1.240827
H  9.380429 14.295117 30.286044 -2.098457 1.067469 1.828453
H  11.393157 14.860980 28.232184 -0.723145 -0.647281 -0.089637
H  9.918950 15.860717 28.531828 0.835892 -2.734774 0.648738
O  10.237650 8.248047 27.609971 1.290932 1.364028 -0.293158
C  10.130716 6.830564 27.425176 -2.938754 1.904350 -0.135057
C  9.635586 6.384847 28.727143 8.197999 -5.316037 2.611803
C  10.350205 7.179662 29.858564 -2.899153 3.266034 -2.751897
C  10.489540 8.555950 28.990006 -1.200723 1.280902 3.113930
H  11.031071 6.504299 26.975539 1.071518 -1.217931 -0.250392
H  9.255948 6.690379 26.762516 0.528100 -0.036425 -0.630449
H  10.187531 5.229854 28.895851 -2.091533 2.647210 -0.511922
H  8.701676 6.293694 29.026302 -4.851770 -0.404473 0.152026
H  11.289718 6.864577 30.142473 2.079411 -0.951425 0.836892
H  9.644573 7.404057 30.686098 0.621808 -0.358740 -0.132815
H  11.424206 9.123406 29.419573 -1.074115 -0.908072 -1.916102
H  9.585100 9.227801 29.246983 1.301180 -0.761143 0.018219
Al 8.047413 0.354299 29.183911 -0.477019 1.815282 1.998107
Cl 9.925493 0.073955 28.137384 -0.936131 -0.402565 1.276911
Cl 6.554604 0.581274 27.566901 -0.479298 -0.340751 0.482147
C  8.015035 2.263441 30.145042 1.164981 -2.756680 -1.498184
C  8.833188 2.151332 31.215216 0.020630 3.163876 2.288722
C  8.889070 3.398317 32.288600 1.294575 -4.325131 2.059457
C  8.657032 4.603545 31.519057 -3.351178 3.012154 4.035927
C  7.507696 4.544143 30.479252 3.679172 -0.950448 3.035940
C  7.262471 3.469867 29.794545 5.458621 -2.195584 6.177602
H  9.657153 1.509800 31.501341 -0.471905 -1.169584 -0.526556
H  9.974827 3.352840 32.756271 -2.070725 0.271163 -0.789544
H  9.551070 5.004340 31.134690 1.254927 0.694856 -0.830757
H  7.029679 5.396238 30.443520 -2.696558 4.544636 -0.903707
H  6.682128 3.382582 29.077779 -5.861448 -0.449314 -6.653470
C  7.492701 -1.017353 30.483026 3.856143 1.624690 -2.993576
C  6.391267 -0.959564 31.155629 -7.655337 0.082520 3.103388
C  5.850701 -1.964289 32.132352 9.502301 1.095712 -6.065254
C  6.740486 -2.940498 32.433290 0.131399 -1.645532 0.597354
C  8.001895 -3.010531 31.764071 0.668176 1.585285 -0.363307
C  8.383410 -1.966243 30.881543 4.186870 -2.529305 -0.168378
H  5.613685 -0.150456 30.977217 0.950304 -0.637272 -0.015662
H  5.062524 -1.614506 32.464965 -7.977485 2.099574 4.010270
H  6.352184 -3.607598 33.205584 0.808712 -0.655262 -0.087619
H  8.862030 -3.649822 31.895767 -0.438029 -0.912610 0.881858
H  9.596330 -1.924069 30.480041 -3.596365 -0.400408 1.022480
172
Lattice="12.836 0 0 6.418 11.116 0 0 0 55" Properties=species:S:1:pos:R:3:forces:R:3 energy=-124866.892932 charge=0  pbc="T T T" config_type=ladder_bare_q0_d3 net_charge=0.0
Mg 0.000000 1.852717 16.000000 0.000000 0.000000 0.000000
Mg 3.209000 1.852717 16.000000 0.000000 0.000000 0.000000
Mg 6.418000 1.852717 16.000000 0.000000 0.000000 0.000000
Mg 9.627000 1.852717 16.000000 0.000000 0.000000 0.000000
Mg 1.604500 4.631793 16.000000 0.000000 0.000000 0.000000
Mg 4.813500 4.631793 16.000000 0.000000 0.000000 0.000000
Mg 8.022500 4.631793 16.000000 0.000000 0.000000 0.000000
Mg 11.231500 4.631793 16.000000 0.000000 0.000000 0.000000
Mg 3.209000 7.410868 16.000000 0.000000 0.000000 0.000000
Mg 6.418000 7.410868 16.000000 0.000000 0.000000 0.000000
Mg 9.627000 7.410868 16.000000 0.000000 0.000000 0.000000
Mg 12.836000 7.410868 16.000000 0.000000 0.000000 0.000000
Mg 4.813500 10.189944 16.000000 0.000000 0.000000 0.000000
Mg 8.022500 10.189944 16.000000 0.000000 0.000000 0.000000
Mg 11.231500 10.189944 16.000000 0.000000 0.000000 0.000000
Mg 14.440500 10.189944 16.000000 0.000000 0.000000 0.000000
Mg 0.000000 0.000000 18.605500 0.000000 0.000000 0.000000
Mg 3.209000 0.000000 18.605500 0.000000 0.000000 0.000000
Mg 6.418000 0.000000 18.605500 0.000000 0.000000 0.000000
Mg 9.627000 0.000000 18.605500 0.000000 0.000000 0.000000
Mg 1.604500 2.779076 18.605500 0.000000 0.000000 0.000000
Mg 4.813500 2.779076 18.605500 0.000000 0.000000 0.000000
Mg 8.022500 2.779076 18.605500 0.000000 0.000000 0.000000
Mg 11.231500 2.779076 18.605500 0.000000 0.000000 0.000000
Mg 3.209000 5.558151 18.605500 0.000000 0.000000 0.000000
Mg 6.418000 5.558151 18.605500 0.000000 0.000000 0.000000
Mg 9.627000 5.558151 18.605500 0.000000 0.000000 0.000000
Mg 12.836000 5.558151 18.605500 0.000000 0.000000 0.000000
Mg 4.813500 8.337227 18.605500 0.000000 0.000000 0.000000
Mg 8.022500 8.337227 18.605500 0.000000 0.000000 0.000000
Mg 11.231500 8.337227 18.605500 0.000000 0.000000 0.000000
Mg 14.440500 8.337227 18.605500 0.000000 0.000000 0.000000
Mg -1.635657 1.328947 21.136942 0.000000 0.000000 0.000000
Mg 1.828326 0.162982 22.460521 0.000000 0.000000 0.000000
Mg 4.430302 0.267700 21.449578 0.000000 0.000000 0.000000
Mg 8.111423 0.773130 20.901946 0.000000 0.000000 0.000000
Mg -0.244269 3.620722 21.861360 0.000000 0.000000 0.000000
Mg 3.094045 2.938961 21.805248 0.000000 0.000000 0.000000
Mg 6.521349 1.591824 23.476472 0.000000 0.000000 0.000000
Mg 6.307958 3.350716 21.472022 0.000000 0.000000 0.000000
Mg 1.777032 5.989533 21.046851 0.000000 0.000000 0.000000
Mg 4.169175 7.054054 21.297369 0.000000 0.000000 0.000000
Mg 9.337125 4.264120 21.510144 0.000000 0.000000 0.000000
Mg 11.245110 6.734711 20.937628 0.000000 0.000000 0.000000
Mg 3.183950 9.752487 21.071610 0.000000 0.000000 0.000000
Mg 6.187551 9.310318 20.867801 0.000000 0.000000 0.000000
Mg 8.962795 8.701045 21.368731 0.000000 0.000000 0.000000
Mg 12.933695 9.424824 21.771371 0.000000 0.000000 0.000000
Mg -1.466306 -0.983788 23.735168 0.000000 0.000000 0.000000
Mg 1.420330 -0.737104 25.379933 0.000000 0.000000 0.000000
Mg 5.257353 -0.899788 24.340298 0.000000 0.000000 0.000000
Mg 8.521068 -1.098160 24.155455 0.000000 0.000000 0.000000
Mg -0.206428 1.496129 24.427025 0.000000 0.000000 0.000000
Mg 3.664130 2.054409 24.812435 0.000000 0.000000 0.000000
Mg 7.913781 1.979163 26.260035 0.000000 0.000000 0.000000
Mg 9.464127 2.385766 23.328256 0.000000 0.000000 0.000000
Mg 1.679948 4.550164 23.829968 0.000000 0.000000 0.000000
Mg 4.862829 5.266967 24.249645 0.000000 0.000000 0.000000
Mg 7.874085 4.824392 24.388482 0.000000 0.000000 0.000000
Mg 10.937293 4.727119 23.909733 0.000000 0.000000 0.000000
Mg 2.934604 7.439701 23.827084 0.000000 0.000000 0.000000
Mg 6.523770 7.820752 23.462169 0.000000 0.000000 0.000000
Mg 9.671354 7.798644 24.256791 0.000000 0.000000 0.000000
Mg 12.839404 7.225372 23.577809 0.000000 0.000000 0.000000
Mg 5.977243 10.712022 27.837119 -1.873977 -2.309960 1.638166
Mg 19.828547 3.307149 25.244380 -6.998077 0.620729 -4.157264
Cl 6.824392 9.800644 29.854610 -0.080136 0.176854 -0.130971
Cl 3.923254 11.784356 25.598197 0.234061 0.616518 -1.822275
Cl -3.639940 3.900129 26.728659 0.309594 0.115019 0.296734
O  8.223370 -2.159749 26.115139 -0.485232 -0.138112 2.048629
C  9.094343 -2.964141 26.927085 4.409284 -0.707135 -3.173037
C  8.434538 -4.083201 27.484900 -3.669912 -3.924298 -2.751807
C  7.157701 -3.499706 27.896479 -5.023864 0.677676 -0.288126
C  6.930435 -2.511772 26.685648 -1.882459 -2.505478 -2.350990
H  9.642936 -2.523543 27.707520 0.755133 1.843702 0.749503
H  9.833694 -3.373627 26.155911 -0.114167 0.723241 0.867986
H  8.765827 -4.734515 28.208319 2.033202 -0.811141 2.175433
H  8.170155 -4.908962 26.661225 0.457486 1.615039 0.898017
H  7.137335 -2.971767 28.887582 0.250106 -0.290588 -0.791710
H  6.161951 -4.221536 27.886872 2.612120 1.456170 0.144677
H  6.350880 -1.622963 26.794149 -0.525267 0.524578 0.493604
H  6.349317 -3.138424 25.712810 1.182205 1.284020 2.599159
O  -0.722251 13.241946 34.568248 0.751713 -1.003568 -0.646923
C  -0.133625 13.714284 33.317243 1.635792 5.766039 5.823483
C  1.367312 14.143976 33.827551 0.172543 -3.842258 -2.471120
C  1.670919 12.661596 34.566039 -12.156388 -1.965848 -13.721218
C  0.219862 12.184698 34.956922 2.058404 3.348976 0.725910
H  -0.545304 14.720187 33.214599 -0.910249 -0.237778 -0.869665
H  -0.174521 13.093503 32.531468 0.022261 -2.475271 -3.060656
H  1.498176 14.957538 34.621686 -0.384441 -0.622411 -1.624598
H  1.910480 16.563358 32.592950 1.356667 -1.725914 -3.832202
H  2.331428 12.798618 35.090487 11.999332 2.131704 11.253752
H  2.087139 11.956612 33.737303 -0.739325 1.103037 1.096169
H  0.257529 11.978960 35.986481 -0.604578 0.475554 2.135272
H  -0.118381 11.303005 34.594054 -0.651615 -3.086381 -2.196970
O  6.465335 5.262678 25.866944 -1.462486 -0.568450 -0.232872
C  6.164541 9.369623 26.223178 3.198176 -0.528845 0.931069
C  7.101458 8.168789 26.847218 -5.790224 -3.051924 -5.346016
C  6.161072 7.009674 27.417536 3.706582 2.224506 3.500991
C  5.481833 6.121821 26.604878 2.192950 0.656444 -5.774277
H  5.208647 8.973359 26.036062 -1.494659 -0.369935 -0.232681
H  7.851718 8.398899 27.472078 2.694366 1.044529 2.297584
H  22.699060 55.130588 71.873169 -0.936330 0.294296 0.057973
H  7.435223 7.493936 25.948361 0.639709 1.472031 1.137281
H  5.547016 7.396879 28.167427 -1.469560 1.108866 1.447623
H  6.794675 6.356819 27.988486 0.952392 -0.377628 0.839908
H  5.044681 6.816519 25.854280 -0.133645 -0.040825 -0.861867
H  4.624221 5.697494 26.902799 -2.728095 -2.576435 1.909757
O  6.302182 12.667821 28.187219 0.732621 0.305765 -0.809623
C  6.357532 13.825405 27.164286 -6.052034 0.460668 7.115007
C  6.536270 14.973088 28.076828 2.221275 3.241419 0.489638
C  6.379909 14.524573 29.591224 2.998107 3.780376 -1.058971
C  5.911763 13.210551 29.494850 -4.716558 -3.920685 0.430829
H  5.359109 13.985388 26.803304 -0.781576 -0.727665 -0.854302
H  6.998821 13.618365 26.496923 5.316189 -1.502205 -4.708680
H  5.816836 15.792104 27.870810 0.121150 -0.420430 -0.086106
H  7.570662 15.433496 27.872380 -1.329958 -0.566035 0.590542
H  5.778786 15.233343 30.120294 -1.096160 0.395758 0.351108
H  7.361503 14.671399 30.095856 -0.199858 -0.556336 -0.339543
H  4.664274 13.193066 29.467422 3.030839 -0.019884 0.344742
H  6.265183 12.509677 30.307241 -0.346409 0.280672 -0.989295
O  9.547134 14.108581 27.424425 -0.349736 -2.961285 -1.717784
C  9.723216 12.590821 27.704981 -3.060213 1.580650 2.562064
C  9.898413 12.478967 29.244475 0.121377 -3.204083 0.437608
C  10.062413 13.867891 29.709504 -0.182495 2.751730 0.148254
C  10.242341 14.759729 28.391862 3.315230 0.997252 3.026653
H  10.427799 12.129551 27.085923 1.402332 -0.553326 -0.915063
H  8.733257 12.135239 27.636511 -0.232529 0.144244 -1.241725
H  10.772884 11.722753 29.456765 -1.132872 1.729871 -0.201822
H  9.028487 11.969913 29.814131 0.838312 0.561170 -1.367802
H  10.926577 13.865423 30.325513 1.152127 0.702558 0.864164
H  9.238568 14.382850 30.311473 0.686940 -1.242679 -0.638910
H  11.441672 14.961648 28.207825 -2.641387 -0.657245 -0.078907
H  9.807630 15.757706 28.613845 0.090722 -0.281676 -0.456920
O  10.090315 8.319773 27.688585 1.356537 0.520217 -1.768510
C  10.039186 6.917478 27.443731 2.455073 -0.433040 -0.206822
C  9.625473 6.295894 28.710825 2.752570 -1.861662 5.232207
C  10.437561 7.347398 29.932827 -10.034254 3.208278 -4.431442
C  10.479732 8.683180 28.980205 -6.512489 -3.015748 3.171081
H  11.022108 6.492707 26.873749 -1.854095 0.708006 1.477962
H  9.254521 6.821670 26.769952 -1.508969 -0.385989 -1.862566
H  9.995459 5.187479 29.065432 -0.641890 2.558631 -1.580813
H  8.605117 6.316970 29.097842 -0.276876 0.286254 -1.033145
H  11.269857 6.944786 30.027954 7.903537 -3.510451 1.753634
H  9.688000 7.408764 30.767419 1.257545 0.011618 -0.509645
H  11.353675 9.088046 29.242312 3.783701 2.313881 -0.212373
H  9.525468 9.238174 29.326681 1.876936 0.065336 -0.020323
Al 8.036051 0.488631 29.184909 -0.103033 -0.532383 1.434217
Cl 9.856353 0.044158 28.090746 -0.298783 -0.487293 1.792157
Cl 6.552629 0.607352 27.478959 -0.486863 -0.491294 1.077837
C  8.145300 2.217855 30.114349 1.011577 -0.371710 -0.634297
C  8.987565 2.114019 31.223009 -9.624185 9.730210 -4.094413
C  8.836820 3.204987 32.175226 4.609746 4.175875 4.075334
C  8.721602 4.738855 31.519476 -3.648835 -2.011188 3.720142
C  7.664441 4.604938 30.425749 -0.890348 2.134659 1.858925
C  7.391119 3.484691 29.786073 -0.101680 -3.550397 0.054102
H  9.527367 1.465433 31.515321 6.802424 -9.429398 3.199717
H  10.004353 3.338313 32.672119 -3.103537 -0.544282 -0.770813
H  9.603477 5.068987 31.028247 1.403552 0.483763 0.264613
H  6.985334 5.450824 30.381769 -0.070544 0.305470 -0.644413
H  6.537161 3.265395 29.091385 0.772224 0.928586 0.504712
C  7.536189 -1.011149 30.456797 6.131436 0.545941 -3.323379
C  6.404786 -0.900608 31.018734 -8.966910 -0.317229 5.523044
C  5.891029 -1.843566 32.036298 6.842058 -1.418367 -2.353268
C  6.881646 -2.941210 32.374734 -10.879500 1.191183 4.448319
C  8.023582 -2.909577 31.777933 5.626444 -7.898976 2.528210
C  8.386201 -2.046144 30.938287 4.853481 7.263901 -8.182026
H  5.618448 -0.109903 30.943620 0.867344 -0.026569 -0.815520
H  5.012527 -1.614536 32.490652 -2.683937 0.084684 1.532486
H  6.330544 -3.654379 33.197191 2.345054 1.233828 -2.146987
H  8.838591 -3.746500 31.867727 -1.613489 1.130388 0.643296
H  9.472209 -1.909559 30.379927 -2.426921 -1.232731 1.782199
172
Lattice="12.836 0 0 6.418 11.116 0 0 0 55" Properties=species:S:1:pos:R:3:forces:R:3 energy=-124872.537300 charge=0  pbc="T T T" config_type=ladder_bare_q0_d3 net_charge=0.0
Mg 0.000000 1.852717 16.000000 0.000000 0.000000 0.000000
Mg 3.209000 1.852717 16.000000 0.000000 0.000000 0.000000
Mg 6.418000 1.852717 16.000000 0.000000 0.000000 0.000000
Mg 9.627000 1.852717 16.000000 0.000000 0.000000 0.000000
Mg 1.604500 4.631793 16.000000 0.000000 0.000000 0.000000
Mg 4.813500 4.631793 16.000000 0.000000 0.000000 0.000000
Mg 8.022500 4.631793 16.000000 0.000000 0.000000 0.000000
Mg 11.231500 4.631793 16.000000 0.000000 0.000000 0.000000
Mg 3.209000 7.410868 16.000000 0.000000 0.000000 0.000000
Mg 6.418000 7.410868 16.000000 0.000000 0.000000 0.000000
Mg 9.627000 7.410868 16.000000 0.000000 0.000000 0.000000
Mg 12.836000 7.410868 16.000000 0.000000 0.000000 0.000000
Mg 4.813500 10.189944 16.000000 0.000000 0.000000 0.000000
Mg 8.022500 10.189944 16.000000 0.000000 0.000000 0.000000
Mg 11.231500 10.189944 16.000000 0.000000 0.000000 0.000000
Mg 14.440500 10.189944 16.000000 0.000000 0.000000 0.000000
Mg 0.000000 0.000000 18.605500 0.000000 0.000000 0.000000
Mg 3.209000 0.000000 18.605500 0.000000 0.000000 0.000000
Mg 6.418000 0.000000 18.605500 0.000000 0.000000 0.000000
Mg 9.627000 0.000000 18.605500 0.000000 0.000000 0.000000
Mg 1.604500 2.779076 18.605500 0.000000 0.000000 0.000000
Mg 4.813500 2.779076 18.605500 0.000000 0.000000 0.000000
Mg 8.022500 2.779076 18.605500 0.000000 0.000000 0.000000
Mg 11.231500 2.779076 18.605500 0.000000 0.000000 0.000000
Mg 3.209000 5.558151 18.605500 0.000000 0.000000 0.000000
Mg 6.418000 5.558151 18.605500 0.000000 0.000000 0.000000
Mg 9.627000 5.558151 18.605500 0.000000 0.000000 0.000000
Mg 12.836000 5.558151 18.605500 0.000000 0.000000 0.000000
Mg 4.813500 8.337227 18.605500 0.000000 0.000000 0.000000
Mg 8.022500 8.337227 18.605500 0.000000 0.000000 0.000000
Mg 11.231500 8.337227 18.605500 0.000000 0.000000 0.000000
Mg 14.440500 8.337227 18.605500 0.000000 0.000000 0.000000
Mg -1.635657 1.328947 21.136942 0.000000 0.000000 0.000000
Mg 1.828326 0.162982 22.460521 0.000000 0.000000 0.000000
Mg 4.430302 0.267700 21.449578 0.000000 0.000000 0.000000
Mg 8.111423 0.773130 20.901946 0.000000 0.000000 0.000000
Mg -0.244269 3.620722 21.861360 0.000000 0.000000 0.000000
Mg 3.094045 2.938961 21.805248 0.000000 0.000000 0.000000
Mg 6.521349 1.591824 23.476472 0.000000 0.000000 0.000000
Mg 6.307958 3.350716 21.472022 0.000000 0.000000 0.000000
Mg 1.777032 5.989533 21.046851 0.000000 0.000000 0.000000
Mg 4.169175 7.054054 21.297369 0.000000 0.000000 0.000000
Mg 9.337125 4.264120 21.510144 0.000000 0.000000 0.000000
Mg 11.245110 6.734711 20.937628 0.000000 0.000000 0.000000
Mg 3.183950 9.752487 21.071610 0.000000 0.000000 0.000000
Mg 6.187551 9.310318 20.867801 0.000000 0.000000 0.000000
Mg 8.962795 8.701045 21.368731 0.000000 0.000000 0.000000
Mg 12.933695 9.424824 21.771371 0.000000 0.000000 0.000000
Mg -1.466306 -0.983788 23.735168 0.000000 0.000000 0.000000
Mg 1.420330 -0.737104 25.379933 0.000000 0.000000 0.000000
Mg 5.257353 -0.899788 24.340298 0.000000 0.000000 0.000000
Mg 8.521068 -1.098160 24.155455 0.000000 0.000000 0.000000
Mg -0.206428 1.496129 24.427025 0.000000 0.000000 0.000000
Mg 3.664130 2.054409 24.812435 0.000000 0.000000 0.000000
Mg 7.913781 1.979163 26.260035 0.000000 0.000000 0.000000
Mg 9.464127 2.385766 23.328256 0.000000 0.000000 0.000000
Mg 1.679948 4.550164 23.829968 0.000000 0.000000 0.000000
Mg 4.862829 5.266967 24.249645 0.000000 0.000000 0.000000
Mg 7.874085 4.824392 24.388482 0.000000 0.000000 0.000000
Mg 10.937293 4.727119 23.909733 0.000000 0.000000 0.000000
Mg 2.934604 7.439701 23.827084 0.000000 0.000000 0.000000
Mg 6.523770 7.820752 23.462169 0.000000 0.000000 0.000000
Mg 9.671354 7.798644 24.256791 0.000000 0.000000 0.000000
Mg 12.839404 7.225372 23.577809 0.000000 0.000000 0.000000
Mg 6.018059 10.628796 27.828955 -0.860833 -0.514670 7.853922
Mg 19.725608 3.312109 25.243881 -10.081252 1.057762 -4.223741
Cl 6.973210 9.807023 29.925820 -0.202557 0.221218 -0.474440
Cl 4.022090 11.913511 25.656784 0.228517 0.488272 -1.821140
Cl -3.716751 3.866917 26.823530 0.304996 0.407869 0.415125
O  8.187046 -2.233256 26.124397 1.274387 0.208604 0.478060
C  9.158817 -3.140761 26.876877 4.636069 6.107118 -0.131699
C  8.349487 -4.065905 27.498728 0.563012 -9.492502 -1.396566
C  7.120197 -3.457164 27.816030 -3.522669 0.995185 0.838353
C  6.881606 -2.536507 26.635785 -1.211515 1.889638 0.567345
H  9.738170 -2.391188 27.729835 -1.476993 -1.899503 -2.382250
H  9.985530 -3.403389 26.131838 -1.119751 -0.008713 0.873982
H  8.891410 -4.897166 28.142185 -0.933821 2.276311 -0.230704
H  8.035366 -4.879042 26.678391 0.664701 1.250701 0.655984
H  7.213413 -3.060293 28.783610 -0.245960 1.705161 1.423038
H  6.199914 -4.043525 27.854475 0.243647 -0.829091 0.154149
H  6.269515 -1.526702 26.879311 1.348852 -2.511522 -0.634601
H  6.374950 -3.113151 25.838847 -0.336060 0.132456 0.260361
O  -0.656293 13.277390 34.677515 0.091388 -0.010103 -1.128369
C  -0.052855 13.832244 33.354417 0.497977 1.429676 3.935265
C  1.410842 14.018299 33.856326 -1.932742 5.456286 -3.429937
C  1.584612 12.817583 34.495985 4.226372 -7.553852 0.213233
C  0.335423 12.202388 35.056422 -2.002645 2.520700 -1.827935
H  -0.561272 14.755989 33.101901 -0.400824 0.183509 0.037746
H  -0.125625 13.114873 32.602853 -0.110175 -1.447414 -1.551320
H  1.480484 14.893244 34.665525 0.023686 -1.183481 -2.304652
H  1.885451 16.634922 32.535112 0.903858 -2.436502 -3.341638
H  2.436314 12.869135 35.144867 0.543784 -0.240006 1.136893
H  1.929411 11.921080 33.778074 -0.258474 1.964981 0.757662
H  0.247801 11.984963 36.077504 0.052601 0.171401 1.926515
H  -0.014905 11.340499 34.529235 0.119101 -1.043603 -0.599142
O  6.351312 5.291398 25.865391 1.961359 -3.617109 -2.402305
C  6.300236 9.268971 26.271097 -1.074937 2.852685 -1.231212
C  6.921623 8.102315 26.749932 5.932649 -0.316185 -0.743611
C  6.170057 7.126608 27.403063 -1.435626 -5.454721 3.211169
C  5.489673 6.069958 26.490247 -0.032815 3.237316 1.990325
H  5.301087 9.019242 25.969610 -1.114182 0.354774 -0.355736
H  7.915794 8.328277 27.323599 -1.679811 -0.155261 -0.525149
H  22.688674 55.238767 71.864778 -0.712186 0.261747 -0.165630
H  7.422677 7.528692 25.886749 -0.188775 0.103991 0.490428
H  5.409486 7.328050 28.132001 -0.633037 1.384436 0.575712
H  6.831103 6.488348 28.028306 0.099780 0.073051 -0.090858
H  5.031048 6.769393 25.849777 -0.919730 1.369959 -2.175464
H  4.592121 5.662928 26.885501 -0.675425 -1.316219 1.184479
O  6.251899 12.622671 28.090104 0.661657 1.916159 0.135984
C  6.215257 13.861096 27.129260 2.442052 -0.320879 3.700209
C  6.667171 15.022198 28.123631 -2.705418 2.956331 -2.165181
C  6.436401 14.582444 29.636077 3.164861 -0.930317 -2.948445
C  5.938195 13.159946 29.411744 -2.976999 -0.459378 2.595053
H  5.266826 13.837728 26.683571 -1.597661 0.537119 -0.354568
H  7.022185 13.730508 26.426881 0.471613 -0.370190 -0.521052
H  5.807608 15.881947 27.874304 2.303594 -1.723404 0.603850
H  7.684184 15.461669 27.761946 -1.787093 -0.971533 1.032914
H  5.856646 15.286614 30.181343 -1.049450 0.362087 0.514726
H  7.452326 14.546010 30.085093 -0.485478 0.079781 0.062513
H  4.771191 13.208331 29.511749 1.760269 -0.344949 -0.268435
H  6.300498 12.499621 30.278378 -0.308818 0.223987 -1.663152
O  9.504562 13.970354 27.463062 0.116857 4.314757 -0.184189
C  9.655664 12.688848 27.793498 -0.013644 -5.778656 -0.337288
C  9.843874 12.406402 29.358525 3.623824 1.544634 -2.594587
C  10.099810 13.884387 29.787647 3.436330 -2.499693 -5.773176
C  10.219612 14.798159 28.415239 1.870187 -2.295619 2.031961
H  10.544768 12.208069 27.120795 -2.014576 0.501621 1.510884
H  8.618785 12.258995 27.570191 1.409114 -0.340840 -0.373022
H  10.758101 11.715808 29.574580 -1.263590 1.320360 -0.591879
H  9.047891 11.884900 29.742707 -2.493530 -0.924289 1.106229
H  10.974266 13.769432 30.312015 2.551746 0.772532 1.424935
H  9.418011 14.238485 30.346741 -5.208134 2.709556 4.219442
H  11.327856 14.925388 28.118647 -1.542830 -0.109387 0.250880
H  9.761675 15.753836 28.648878 -0.330153 0.291570 -0.561937
O  10.109233 8.267012 27.588153 0.974653 5.108370 2.873901
C  10.048911 6.967913 27.534255 -1.818326 -6.174439 -3.819129
C  9.706262 6.261985 28.868572 -1.979211 4.789837 -0.221951
C  10.363560 7.255880 29.859855 -1.150554 1.581263 -0.789695
C  10.405199 8.655939 29.069308 1.317921 -0.703790 0.368303
H  10.922329 6.534415 26.950042 -0.147232 -0.119372 0.920160
H  9.194039 6.695164 26.719609 1.299597 0.323304 1.519797
H  10.104002 5.349908 29.055922 0.907672 -3.276792 -0.064924
H  8.565205 6.315849 29.085925 1.837376 -0.426085 -0.748522
H  11.357959 6.920019 30.133729 0.177314 0.099422 0.522039
H  9.608939 7.370097 30.670476 1.122741 0.054546 0.219443
H  11.427861 9.242277 29.251558 -2.059624 -1.249220 -0.893186
H  9.550877 9.251948 29.394971 -0.048207 0.327980 -0.181481
Al 8.008035 0.509020 29.253502 0.440164 -1.731026 0.500591
Cl 9.897900 -0.056617 28.082997 -1.141820 -0.243321 2.244179
Cl 6.557192 0.552043 27.491221 -0.138348 -0.075167 1.109771