172
Lattice="12.836 0.0 0.0 6.418 11.116 0.0 0.0 0.0 55.0" Properties=species:S:1:pos:R:3:forces:R:3 energy=-124886.852753 charge=0 config_type=near_mg_bare_steer_h41_t0 pbc="T T T"
Mg     0.000000     1.852717    16.000000     0.00000     0.00000     0.00000
Mg     3.209000     1.852717    16.000000     0.00000     0.00000     0.00000
Mg     6.418000     1.852717    16.000000     0.00000     0.00000     0.00000
Mg     9.627000     1.852717    16.000000     0.00000     0.00000     0.00000
Mg     1.604500     4.631793    16.000000     0.00000     0.00000     0.00000
Mg     4.813500     4.631793    16.000000     0.00000     0.00000     0.00000
Mg     8.022500     4.631793    16.000000     0.00000     0.00000     0.00000
Mg    11.231500     4.631793    16.000000     0.00000     0.00000     0.00000
Mg     3.209000     7.410868    16.000000     0.00000     0.00000     0.00000
Mg     6.418000     7.410868    16.000000     0.00000     0.00000     0.00000
Mg     9.627000     7.410868    16.000000     0.00000     0.00000     0.00000
Mg    12.836000     7.410868    16.000000     0.00000     0.00000     0.00000
Mg     4.813500    10.189944    16.000000     0.00000     0.00000     0.00000
Mg     8.022500    10.189944    16.000000     0.00000     0.00000     0.00000
Mg    11.231500    10.189944    16.000000     0.00000     0.00000     0.00000
Mg    14.440500    10.189944    16.000000     0.00000     0.00000     0.00000
Mg     0.000000     0.000000    18.605500     0.00000     0.00000     0.00000
Mg     3.209000     0.000000    18.605500     0.00000     0.00000     0.00000
Mg     6.418000     0.000000    18.605500     0.00000     0.00000     0.00000
Mg     9.627000     0.000000    18.605500     0.00000     0.00000     0.00000
Mg     1.604500     2.779076    18.605500     0.00000     0.00000     0.00000
Mg     4.813500     2.779076    18.605500     0.00000     0.00000     0.00000
Mg     8.022500     2.779076    18.605500     0.00000     0.00000     0.00000
Mg    11.231500     2.779076    18.605500     0.00000     0.00000     0.00000
Mg     3.209000     5.558151    18.605500     0.00000     0.00000     0.00000
Mg     6.418000     5.558151    18.605500     0.00000     0.00000     0.00000
Mg     9.627000     5.558151    18.605500     0.00000     0.00000     0.00000
Mg    12.836000     5.558151    18.605500     0.00000     0.00000     0.00000
Mg     4.813500     8.337227    18.605500     0.00000     0.00000     0.00000
Mg     8.022500     8.337227    18.605500     0.00000     0.00000     0.00000
Mg    11.231500     8.337227    18.605500     0.00000     0.00000     0.00000
Mg    14.440500     8.337227    18.605500     0.00000     0.00000     0.00000
Mg    -1.635657     1.328947    21.136942     0.00000     0.00000     0.00000
Mg     1.828326     0.162982    22.460521     0.00000     0.00000     0.00000
Mg     4.430302     0.267700    21.449578     0.00000     0.00000     0.00000
Mg     8.111423     0.773130    20.901946     0.00000     0.00000     0.00000
Mg    -0.244269     3.620722    21.861360     0.00000     0.00000     0.00000
Mg     3.094045     2.938961    21.805248     0.00000     0.00000     0.00000
Mg     6.521349     1.591824    23.476472     0.00000     0.00000     0.00000
Mg     6.307958     3.350716    21.472022     0.00000     0.00000     0.00000
Mg     1.777032     5.989533    21.046851     0.00000     0.00000     0.00000
Mg     4.169175     7.054054    21.297369     0.00000     0.00000     0.00000
Mg     9.337125     4.264120    21.510144     0.00000     0.00000     0.00000
Mg    11.245110     6.734711    20.937628     0.00000     0.00000     0.00000
Mg     3.183950     9.752487    21.071610     0.00000     0.00000     0.00000
Mg     6.187551     9.310318    20.867801     0.00000     0.00000     0.00000
Mg     8.962795     8.701045    21.368731     0.00000     0.00000     0.00000
Mg    12.933695     9.424824    21.771371     0.00000     0.00000     0.00000
Mg    -1.466306    -0.983788    23.735168     0.00000     0.00000     0.00000
Mg     1.420330    -0.737104    25.379933     0.00000     0.00000     0.00000
Mg     5.257353    -0.899788    24.340298     0.00000     0.00000     0.00000
Mg     8.521068    -1.098160    24.155455     0.00000     0.00000     0.00000
Mg    -0.206428     1.496129    24.427025     0.00000     0.00000     0.00000
Mg     3.664130     2.054409    24.812435     0.00000     0.00000     0.00000
Mg     7.913781     1.979163    26.260035     0.00000     0.00000     0.00000
Mg     9.464127     2.385766    23.328256     0.00000     0.00000     0.00000
Mg     1.679948     4.550164    23.829968     0.00000     0.00000     0.00000
Mg     4.862829     5.266967    24.249645     0.00000     0.00000     0.00000
Mg     7.874085     4.824392    24.388482     0.00000     0.00000     0.00000
Mg    10.937293     4.727119    23.909733     0.00000     0.00000     0.00000
Mg     2.934604     7.439701    23.827084     0.00000     0.00000     0.00000
Mg     6.523770     7.820752    23.462169     0.00000     0.00000     0.00000
Mg     9.671354     7.798644    24.256791     0.00000     0.00000     0.00000
Mg    12.839404     7.225372    23.577809     0.00000     0.00000     0.00000
Mg     7.475011    11.271469    28.741313    -0.10957    -0.36388    -3.44520
Mg    22.906550     3.266021    25.588413     2.07794     1.21470     3.64919
Cl     7.208343    10.107650    30.653718     0.21988     0.00310     0.67051
Cl     3.898052    11.770029    25.476405     0.29538    -0.65045    -0.09637
Cl    -6.667608     3.802410    26.018695    -0.78000     0.36359     0.64109
O      7.986472    -1.577698    26.208677    -0.71355    -0.60457     1.10743
C      8.118306    -2.900732    26.819784     0.43165    -0.59855     1.44785
C      6.719888    -3.377892    27.249005     0.20282    -1.05383    -0.18857
C      6.047302    -2.080896    27.599092    -1.50059     1.62505     0.99834
C      6.836238    -0.944767    26.926307     0.03313    -0.63490    -1.07897
H      8.742729    -2.856718    27.733012     0.05716     0.47394    -0.33899
H      8.632983    -3.608730    26.157151    -0.13406     0.15668    -0.38630
H      6.709888    -4.086719    28.150717     0.28067     0.81328    -1.25813
H      6.258417    -3.897969    26.383702    -0.12122     0.12074     0.25129
H      6.041559    -1.931925    28.710428     0.08027    -0.10306    -0.79210
H      4.970779    -1.933111    27.273900     0.80798    -0.61396     0.17056
H      7.211527    -0.157131    27.585340     0.09742    -0.01870     0.26936
H      6.240562    -0.469007    26.091635     0.48071     0.06949     0.96360
O      2.413509    11.927589    36.153439    -0.68516     0.40954     1.11721
C      2.931051    13.034648    35.438777    -1.55388    -1.74398    -4.51135
C      4.307977    12.563426    34.882015     0.04841    -0.00378     0.41533
C      4.338622    11.003934    35.030172    -0.93870    -0.05182    -0.04162
C      2.895204    10.727402    35.617735     1.81167    -1.53534     0.58944
H      2.941802    13.880506    36.047008     0.17296     1.58768     1.35726
H      2.198255    13.301674    34.484336     1.64255    -0.62488     2.16758
H      5.085170    12.959822    35.536997     0.04435     0.01813     0.50525
H      4.760654    15.173549    34.376949     0.55110    -0.08173     0.97747
H      5.178486    10.647233    35.632362    -0.12409     0.29012     0.60800
H      4.453891    10.376226    34.129768    -0.13159     0.66674    -0.30869
H      2.970172     9.965394    36.460467    -0.41957     0.74741    -0.88565
H      2.308233    10.315363    34.787665    -0.49962     0.11883     0.07450
O      4.836925     7.428526    24.285715     0.23994    -0.12717     2.00994
C      6.761352    10.152531    27.162554    -1.11424     0.03763    -0.64795
C      6.364371     8.733028    27.632064     1.88874     0.30386    -0.51755
C      6.098735     7.809629    26.448434    -0.20182    -2.21305     1.28880
C      5.210469     8.312586    25.371321     0.93767     0.74628    -0.08583
H      5.810267    10.617316    26.762164     0.73249    -0.27238     0.49120
H      5.507124     8.870508    28.289035    -0.31600    -0.45473     0.35314
H      3.312591    11.748231    20.279109     0.43729    -0.30963    -0.08700
H      7.235303     8.206636    28.183080    -1.50868     1.08799    -0.46444
H      5.810757     6.813614    26.831319    -0.68963     0.03669    -0.01106
H      7.054506     7.483985    26.004662     0.28355     0.46489    -0.20141
H      5.952786     9.106065    24.942398    -0.17281    -0.60733     0.31990
H      4.451945     9.025070    25.648137    -1.23612    -0.18543     0.88647
O      6.725097    13.150703    28.911240    -0.96553     1.28901    -0.44833
C      6.168814    13.856688    27.698613     1.36933     1.18724     0.68302
C      5.054242    14.772133    28.249669     0.37640     0.45377    -0.01175
C      5.472360    15.072603    29.710896     0.45536    -0.18342    -0.41503
C      5.997131    13.716636    30.106023     0.49289    -1.89541     0.74178
H      5.780156    13.076899    27.035780     0.26608    -0.03591    -0.19979
H      7.070513    14.475718    27.278873    -1.66499    -1.14496     0.25057
H      4.104468    14.252004    28.337672    -0.27949    -0.65284    -0.11109
H      4.798843    15.646594    27.624398     0.58955     0.04135     0.14669
H      4.576826    15.325281    30.286080     0.07190     0.15033     0.26975
H      6.285124    15.824369    29.854167    -0.63770    -0.18220    -0.39368
H      5.214820    12.948425    30.426613     0.94813     1.15624    -0.59301
H      6.805537    13.729902    30.851924    -0.30999     0.11389     0.25781
O      9.462465    11.595531    28.176426    -0.19897    -1.08546    -1.02860
C      9.864674    12.737473    27.415038     0.04802     1.82759     1.84652
C     10.118543    13.825397    28.527155    -0.27284    -0.01540     0.21479
C     10.158013    12.988000    29.834539    -0.00191     1.55102     1.33039
C     10.237314    11.576117    29.382543     1.53653     0.50151    -0.14672
H      9.031336    13.012147    26.765665    -0.40584    -0.04977    -0.07071
H     10.800754    12.650393    26.838887     0.15764    -0.78603     0.19139
H      9.273645    14.514099    28.666885     0.10367     0.11122    -0.58572
H     11.048824    14.397051    28.380188    -0.22331    -0.17118    -0.16497
H      9.212688    13.135944    30.401828     0.35181     0.00098    -0.15538
H     10.992387    13.366256    30.477819    -0.42320    -0.62477    -0.29097
H      9.885658    10.816690    30.041121    -0.82786    -0.67845     0.63547
H     11.262481    11.327973    29.152536     0.69429    -0.24515    -0.36993
O      8.800820     5.679189    27.355784     0.64649    -0.12750     0.71341
C      8.275716     5.181035    28.624763    -1.10017     0.88481    -0.73583
C      8.374224     6.332459    29.578563     0.63500     1.80889     0.10247
C      9.796893     6.950366    29.232666    -1.08527    -1.45476    -2.86934
C      9.585360     6.905107    27.625883    -0.29728    -0.56132    -0.10792
H      8.734973     4.306477    29.004303     1.41426    -1.01072     0.21898
H      7.290083     4.802001    28.369291    -0.66193     0.33670     0.16196
H      8.423382     6.116277    30.640577    -0.57281    -0.44022     0.37017
H      7.592668     7.149100    29.361838     0.98867    -1.21556     0.61513
H     10.678684     6.392723    29.593343    -0.43213    -0.18259    -0.27978
H      9.901451     7.938234    29.571212     0.00706     1.73038     0.51885
H     10.370221     6.828436    26.837591     0.45662     0.13511     0.98743
H      8.931412     7.726363    27.255819     0.32729     0.17506     0.58890
Al     8.657437     0.700492    30.319571     0.61436     0.19362    -1.19321
Cl    10.118633     0.350331    28.516915    -0.56040    -0.01568     1.05274
Cl     7.296012     2.125966    29.289079    -0.64131    -0.14197    -0.41044
C      9.512518     1.882355    31.627431    -0.32399    -0.75895    -0.06776
C     10.538420     1.333592    32.321268     0.31521    -0.44211     1.18298
C     11.171321     2.005685    33.523514     1.18157    -0.48490     0.23495
C     11.099208     3.515093    33.451928    -1.96876     0.70179    -1.14435
C      9.702941     3.969807    32.900416     2.47459    -0.09887    -0.00970
C      9.056978     3.217714    31.999692     0.83311    -0.22594     0.84417
H     10.917842     0.300100    32.189221    -0.36145     0.47134    -0.38508
H     12.242073     1.719971    33.629706    -0.14215     0.11307    -0.91194
H     11.873475     3.920845    32.785813     0.08666     0.05496    -0.13453
H      9.485936     5.002611    33.115087    -0.62713     0.28979     0.09072
H      8.175431     3.642093    31.634546    -1.59068     0.29369    -1.01416
C      7.810138    -1.074149    30.519963    -0.12860     0.87443     0.87488
C      6.513897    -1.269129    31.045142     1.05837    -0.32808    -0.38598
C      6.019152    -2.538617    31.252602    -0.65682    -1.57499     0.57319
C      6.775460    -3.696605    30.981857     0.28978     0.40291    -0.73127
C      8.047902    -3.488832    30.360278    -0.70273    -0.99586     1.55140
C      8.584869    -2.199727    30.259892    -0.30797    -0.51186    -1.32363
H      5.911567    -0.428363    31.253591    -0.80137     1.00521     0.34758
H      5.023363    -2.746952    31.655930     0.01691     0.52214     0.00939
H      6.283377    -4.690393    31.182445     0.89388     0.92659    -0.32114
H      8.639084    -4.372146    30.134820     0.20928    -0.00684    -0.24131
H      9.502645    -2.033174    29.693338     0.32493    -0.25747     0.41060
172
Lattice="12.836 0.0 0.0 6.418 11.116 0.0 0.0 0.0 55.0" Properties=species:S:1:pos:R:3:forces:R:3 energy=-124887.103338 charge=0 config_type=near_mg_bare_steer_h40_t2 pbc="T T T"
Mg     0.000000     1.852717    16.000000     0.00000     0.00000     0.00000
Mg     3.209000     1.852717    16.000000     0.00000     0.00000     0.00000
Mg     6.418000     1.852717    16.000000     0.00000     0.00000     0.00000
Mg     9.627000     1.852717    16.000000     0.00000     0.00000     0.00000
Mg     1.604500     4.631793    16.000000     0.00000     0.00000     0.00000
Mg     4.813500     4.631793    16.000000     0.00000     0.00000     0.00000
Mg     8.022500     4.631793    16.000000     0.00000     0.00000     0.00000
Mg    11.231500     4.631793    16.000000     0.00000     0.00000     0.00000
Mg     3.209000     7.410868    16.000000     0.00000     0.00000     0.00000
Mg     6.418000     7.410868    16.000000     0.00000     0.00000     0.00000
Mg     9.627000     7.410868    16.000000     0.00000     0.00000     0.00000
Mg    12.836000     7.410868    16.000000     0.00000     0.00000     0.00000
Mg     4.813500    10.189944    16.000000     0.00000     0.00000     0.00000
Mg     8.022500    10.189944    16.000000     0.00000     0.00000     0.00000
Mg    11.231500    10.189944    16.000000     0.00000     0.00000     0.00000
Mg    14.440500    10.189944    16.000000     0.00000     0.00000     0.00000
Mg     0.000000     0.000000    18.605500     0.00000     0.00000     0.00000
Mg     3.209000     0.000000    18.605500     0.00000     0.00000     0.00000
Mg     6.418000     0.000000    18.605500     0.00000     0.00000     0.00000
Mg     9.627000     0.000000    18.605500     0.00000     0.00000     0.00000
Mg     1.604500     2.779076    18.605500     0.00000     0.00000     0.00000
Mg     4.813500     2.779076    18.605500     0.00000     0.00000     0.00000
Mg     8.022500     2.779076    18.605500     0.00000     0.00000     0.00000
Mg    11.231500     2.779076    18.605500     0.00000     0.00000     0.00000
Mg     3.209000     5.558151    18.605500     0.00000     0.00000     0.00000
Mg     6.418000     5.558151    18.605500     0.00000     0.00000     0.00000
Mg     9.627000     5.558151    18.605500     0.00000     0.00000     0.00000
Mg    12.836000     5.558151    18.605500     0.00000     0.00000     0.00000
Mg     4.813500     8.337227    18.605500     0.00000     0.00000     0.00000
Mg     8.022500     8.337227    18.605500     0.00000     0.00000     0.00000
Mg    11.231500     8.337227    18.605500     0.00000     0.00000     0.00000
Mg    14.440500     8.337227    18.605500     0.00000     0.00000     0.00000
Mg    -1.632996     1.327321    21.134846     0.00000     0.00000     0.00000
Mg     1.826999     0.160731    22.457010     0.00000     0.00000     0.00000
Mg     4.437238     0.262286    21.452729     0.00000     0.00000     0.00000
Mg     8.117529     0.770055    20.904271     0.00000     0.00000     0.00000
Mg    -0.242032     3.618663    21.866335     0.00000     0.00000     0.00000
Mg     3.094630     2.936233    21.808000     0.00000     0.00000     0.00000
Mg     6.516176     1.587200    23.474659     0.00000     0.00000     0.00000
Mg     6.304613     3.353691    21.469049     0.00000     0.00000     0.00000
Mg     1.776662     5.995961    21.045519     0.00000     0.00000     0.00000
Mg     4.167702     7.059188    21.294935     0.00000     0.00000     0.00000
Mg     9.339256     4.263119    21.513885     0.00000     0.00000     0.00000
Mg    11.245209     6.735279    20.933232     0.00000     0.00000     0.00000
Mg     3.182115     9.751244    21.074968     0.00000     0.00000     0.00000
Mg     6.188000     9.316376    20.868474     0.00000     0.00000     0.00000
Mg     8.969720     8.702533    21.370599     0.00000     0.00000     0.00000
Mg    12.933699     9.419190    21.775710     0.00000     0.00000     0.00000
Mg    -1.467277    -0.982689    23.736692     0.00000     0.00000     0.00000
Mg     1.422625    -0.737720    25.378189     0.00000     0.00000     0.00000
Mg     5.255740    -0.896596    24.340679     0.00000     0.00000     0.00000
Mg     8.523158    -1.098681    24.161200     0.00000     0.00000     0.00000
Mg    -0.210528     1.495865    24.424541     0.00000     0.00000     0.00000
Mg     3.669443     2.054227    24.809885     0.00000     0.00000     0.00000
Mg     7.908228     1.972373    26.278239     0.00000     0.00000     0.00000
Mg     9.460122     2.387827    23.326349     0.00000     0.00000     0.00000
Mg     1.684738     4.553206    23.833973     0.00000     0.00000     0.00000
Mg     4.865215     5.261652    24.250684     0.00000     0.00000     0.00000
Mg     7.875771     4.824485    24.388915     0.00000     0.00000     0.00000
Mg    10.932123     4.726607    23.910212     0.00000     0.00000     0.00000
Mg     2.931031     7.439756    23.824935     0.00000     0.00000     0.00000
Mg     6.523965     7.824676    23.464359     0.00000     0.00000     0.00000
Mg     9.669738     7.799952    24.259399     0.00000     0.00000     0.00000
Mg    12.847043     7.229015    23.581929     0.00000     0.00000     0.00000
Mg     7.476288    11.267892    28.738085    -0.17309    -0.04860    -1.83327
Mg    22.913577     3.268346    25.586714     2.97494     2.18688     3.49880
Cl     7.205095    10.104217    30.654044     0.21863     0.00793     0.64951
Cl     3.893498    11.771798    25.474915     0.28666    -0.65664    -0.09734
Cl    -6.668859     3.806948    26.020025    -0.76030     0.36138     0.64339
O      7.986521    -1.579507    26.208663    -0.70119    -0.67897     1.08274
C      8.111665    -2.901629    26.820858     0.79064    -0.85065     1.28958
C      6.720987    -3.378089    27.241186    -0.08637    -1.06356    -0.46425
C      6.044409    -2.085667    27.596699    -1.82752     1.82778     0.89266
C      6.833828    -0.947620    26.923816     0.25512    -0.60307    -0.80007
H      8.747654    -2.864832    27.730007    -0.00693     0.47568    -0.40815
H      8.605658    -3.634813    26.154428    -0.14173     0.41087    -0.26448
H      6.707178    -4.091488    28.129048     0.26342     0.69026    -1.10173
H      6.268233    -3.893132    26.352067    -0.05363     0.26786     0.57621
H      6.050025    -1.908801    28.706612     0.02181    -0.28481    -0.84633
H      4.950432    -1.940398    27.268915     1.21678    -0.62087     0.30134
H      7.222673    -0.165606    27.591970    -0.02337    -0.14239     0.15139
H      6.252406    -0.469645    26.095465     0.31112     0.18663     0.77718
O      2.418126    11.923140    36.158277    -0.75443     0.61033     1.04321
C      2.933152    13.043383    35.441560    -1.08834    -2.40521    -4.18242
C      4.308517    12.563567    34.883087     0.33159     0.08755     0.72075
C      4.331096    11.002146    35.021962    -0.55539    -0.17789     0.37923
C      2.892200    10.721952    35.616801     2.12630    -1.03564     0.67122
H      2.963172    13.884986    36.045229     0.14816     1.74547     1.55867
H      2.235318    13.291089    34.516281     1.11613    -0.41213     1.64142
H      5.088989    12.957464    35.561706    -0.24010    -0.16268     0.09949
H      4.768757    15.165589    34.375786     0.51311    -0.05161     0.99568
H      5.169863    10.659791    35.652780    -0.35857     0.32298     0.32495
H      4.461563    10.361472    34.130647    -0.13456     0.73072    -0.26376
H      2.965520     9.971415    36.450477    -0.34005     0.49204    -0.58247
H      2.322117    10.302339    34.800510    -0.89120    -0.00418    -0.35732
O      4.833303     7.431829    24.280491     0.28124    -0.24085     2.12743
C      6.761612    10.148152    27.168350    -0.99417     0.13936    -0.82418
C      6.361797     8.736292    27.637631     1.98712     0.06409    -0.11473
C      6.104626     7.811764    26.456313    -0.53220    -1.75087     0.88240
C      5.213384     8.313564    25.371960     0.37222     0.56203     0.25815
H      5.830377    10.620483    26.726581     0.69050    -0.36706     0.61115
H      5.517970     8.883365    28.326993    -0.14360    -0.56632     0.03038
H      3.313632    11.731360    20.270381     0.46150    -0.27354    -0.00085
H      7.238065     8.183180    28.191417    -1.69809     1.37503    -0.63214
H      5.796904     6.836000    26.818570    -0.79592    -0.53426     0.28437
H      7.042437     7.476016    25.996160     0.51532     0.46021    -0.12494
H      5.939486     9.073416    24.937792     0.01454    -0.08056     0.23752
H      4.430689     8.999690    25.682183    -0.88139    -0.27109     0.64418
O      6.722468    13.150992    28.904894    -0.97032     1.31695    -0.30271
C      6.171226    13.855241    27.693079     0.82475     0.90904     0.65487
C      5.055330    14.781483    28.246864    -0.18877    -0.29762     0.29570
C      5.470266    15.076144    29.719625     0.43726    -0.25482    -0.77188
C      5.988374    13.717431    30.101373     1.46950    -1.14413     0.61685
H      5.779396    13.048472    27.034462     0.44212     0.47198     0.04737
H      7.052915    14.488973    27.293733    -1.35834    -1.13052     0.01871
H      4.087338    14.242524    28.328482     0.37216    -0.22703    -0.11259
H      4.795351    15.654700    27.640612     0.54562     0.26520    -0.08468
H      4.575339    15.351380    30.284811     0.07897     0.06054     0.29491
H      6.295930    15.810361    29.862117    -0.62111    -0.08086    -0.39711
H      5.246037    12.971002    30.406970     0.01052     0.30184    -0.23570
H      6.799797    13.739574    30.848762    -0.36045     0.06315     0.17717
O      9.459799    11.594645    28.171540    -0.10371    -1.02732    -0.86425
C      9.867104    12.738512    27.415826     0.38943     1.73923     1.33415
C     10.116838    13.825097    28.517737    -0.12255     0.11315     0.41641
C     10.156485    12.991269    29.830319    -0.45284     1.16815     1.02625
C     10.233164    11.576874    29.388470     2.11479     0.21830    -0.61076
H      9.035562    13.015433    26.761749    -0.38805    -0.07291    -0.02988
H     10.813928    12.654274    26.816180    -0.29614    -0.76942     0.56278
H      9.280690    14.525846    28.649727     0.03852     0.03839    -0.54324
H     11.046707    14.405679    28.379289    -0.25772    -0.28153    -0.18076
H      9.214311    13.120492    30.404104     0.26758     0.12624    -0.18029
H     10.973114    13.349408    30.469705     0.09074    -0.33127     0.05198
H      9.899440    10.800240    30.038033    -0.91884    -0.57599     0.64988
H     11.269547    11.308851    29.144777     0.15705     0.00652    -0.22114
O      8.802769     5.677205    27.355357     0.60659    -0.06771     0.75710
C      8.288422     5.185417    28.624426    -1.21238     0.62345    -0.47416
C      8.366643     6.335168    29.585255     1.24042     1.54217    -0.16792
C      9.801133     6.939753    29.237793    -2.19065     0.05277    -3.10213
C      9.577846     6.909192    27.624813     0.03205    -0.80302    -0.19004
H      8.739239     4.302230    29.018159     1.37876    -0.70746     0.10976
H      7.306422     4.795784    28.388295    -0.81401     0.30503     0.02634
H      8.438262     6.092286    30.634518    -0.63431    -0.39750     0.57862
H      7.620261     7.165396    29.377295     0.59957    -1.09758     0.57127
H     10.633445     6.379782    29.592034     0.72405    -0.84401     0.09917
H      9.908000     7.941898    29.589272    -0.00769     1.03959     0.27729
H     10.336194     6.846590    26.807147     0.66557     0.01304     1.11173
H      8.945881     7.724189    27.235485    -0.06789     0.42821     0.71251
Al     8.654715     0.701903    30.301905     0.75502     0.24361    -0.94766
Cl    10.120640     0.352187    28.517469    -0.55180    -0.03359     1.00696
Cl     7.295913     2.127376    29.284094    -0.65749    -0.10794    -0.42344
C      9.519181     1.877382    31.628641    -0.56619    -0.64861    -0.25368
C     10.540599     1.330530    32.324468     0.38615    -0.64346     1.22698
C     11.171368     2.000410    33.525412     0.83677    -0.30854     0.17262
C     11.099139     3.510363    33.450317    -1.77532     0.76421    -1.21539
C      9.706222     3.977741    32.896838     2.55030    -1.60890    -0.50336
C      9.053570     3.218437    31.996944     1.14246    -0.28601     1.08468
H     10.935180     0.294595    32.206446    -0.48956     0.61895    -0.46648
H     12.226229     1.697009    33.607322     0.23398     0.13474    -0.75819
H     11.881681     3.915803    32.788518     0.01281     0.01479    -0.09878
H      9.500525     4.981409    33.098627    -0.89263     1.54679     0.37951
H      8.159967     3.624647    31.640797    -1.56671     0.32259    -1.00514
C      7.805107    -1.067452    30.520796     0.12048     0.57601     0.73169
C      6.513914    -1.271269    31.044610     0.83841     0.67211    -0.37668
C      6.028246    -2.534702    31.247563    -1.07116    -1.65520     0.79145
C      6.774147    -3.692028    30.985810     0.51371     0.22237    -0.90812
C      8.046609    -3.488701    30.359773    -0.54039    -1.11385     1.59353
C      8.580202    -2.202840    30.263592    -0.32977    -0.06973    -1.20608
H      5.904900    -0.413951    31.254434    -0.46402     0.43076     0.23494
H      5.032536    -2.719671    31.658372    -0.01945     0.38943     0.01431
H      6.285830    -4.682121    31.185366     0.80627     0.81785    -0.27970
H      8.666945    -4.361125    30.147541     0.00488     0.04825    -0.20423
H      9.514258    -2.031192    29.729382     0.32196    -0.28541     0.31233
172
Lattice="12.836 0.0 0.0 6.418 11.116 0.0 0.0 0.0 55.0" Properties=species:S:1:pos:R:3:forces:R:3 energy=-124887.549103 charge=0 config_type=near_mg_bare_steer_h40_t4 pbc="T T T"
Mg     0.000000     1.852717    16.000000     0.00000     0.00000     0.00000
Mg     3.209000     1.852717    16.000000     0.00000     0.00000     0.00000
Mg     6.418000     1.852717    16.000000     0.00000     0.00000     0.00000
Mg     9.627000     1.852717    16.000000     0.00000     0.00000     0.00000
Mg     1.604500     4.631793    16.000000     0.00000     0.00000     0.00000
Mg     4.813500     4.631793    16.000000     0.00000     0.00000     0.00000
Mg     8.022500     4.631793    16.000000     0.00000     0.00000     0.00000
Mg    11.231500     4.631793    16.000000     0.00000     0.00000     0.00000
Mg     3.209000     7.410868    16.000000     0.00000     0.00000     0.00000
Mg     6.418000     7.410868    16.000000     0.00000     0.00000     0.00000
Mg     9.627000     7.410868    16.000000     0.00000     0.00000     0.00000
Mg    12.836000     7.410868    16.000000     0.00000     0.00000     0.00000
Mg     4.813500    10.189944    16.000000     0.00000     0.00000     0.00000
Mg     8.022500    10.189944    16.000000     0.00000     0.00000     0.00000
Mg    11.231500    10.189944    16.000000     0.00000     0.00000     0.00000
Mg    14.440500    10.189944    16.000000     0.00000     0.00000     0.00000
Mg     0.000000     0.000000    18.605500     0.00000     0.00000     0.00000
Mg     3.209000     0.000000    18.605500     0.00000     0.00000     0.00000
Mg     6.418000     0.000000    18.605500     0.00000     0.00000     0.00000
Mg     9.627000     0.000000    18.605500     0.00000     0.00000     0.00000
Mg     1.604500     2.779076    18.605500     0.00000     0.00000     0.00000
Mg     4.813500     2.779076    18.605500     0.00000     0.00000     0.00000
Mg     8.022500     2.779076    18.605500     0.00000     0.00000     0.00000
Mg    11.231500     2.779076    18.605500     0.00000     0.00000     0.00000
Mg     3.209000     5.558151    18.605500     0.00000     0.00000     0.00000
Mg     6.418000     5.558151    18.605500     0.00000     0.00000     0.00000
Mg     9.627000     5.558151    18.605500     0.00000     0.00000     0.00000
Mg    12.836000     5.558151    18.605500     0.00000     0.00000     0.00000
Mg     4.813500     8.337227    18.605500     0.00000     0.00000     0.00000
Mg     8.022500     8.337227    18.605500     0.00000     0.00000     0.00000
Mg    11.231500     8.337227    18.605500     0.00000     0.00000     0.00000
Mg    14.440500     8.337227    18.605500     0.00000     0.00000     0.00000
Mg    -1.629151     1.325964    21.132633     0.00000     0.00000     0.00000