172
Lattice="12.836 0 0 6.418 11.116 0 0 0 55" Properties=species:S:1:pos:R:3:forces:R:3 energy=-124876.039269 charge=0 pbc="T T T" config_type=near_mg_bare_seed0 dft_level=gamma
Mg 0.000000 1.852717 16.000000 0.000000 0.000000 0.000000
Mg 3.209000 1.852717 16.000000 0.000000 0.000000 0.000000
Mg 6.418000 1.852717 16.000000 0.000000 0.000000 0.000000
Mg 9.627000 1.852717 16.000000 0.000000 0.000000 0.000000
Mg 1.604500 4.631793 16.000000 0.000000 0.000000 0.000000
Mg 4.813500 4.631793 16.000000 0.000000 0.000000 0.000000
Mg 8.022500 4.631793 16.000000 0.000000 0.000000 0.000000
Mg 11.231500 4.631793 16.000000 0.000000 0.000000 0.000000
Mg 3.209000 7.410868 16.000000 0.000000 0.000000 0.000000
Mg 6.418000 7.410868 16.000000 0.000000 0.000000 0.000000
Mg 9.627000 7.410868 16.000000 0.000000 0.000000 0.000000
Mg 12.836000 7.410868 16.000000 0.000000 0.000000 0.000000
Mg 4.813500 10.189944 16.000000 0.000000 0.000000 0.000000
Mg 8.022500 10.189944 16.000000 0.000000 0.000000 0.000000
Mg 11.231500 10.189944 16.000000 0.000000 0.000000 0.000000
Mg 14.440500 10.189944 16.000000 0.000000 0.000000 0.000000
Mg 0.000000 0.000000 18.605500 0.000000 0.000000 0.000000
Mg 3.209000 0.000000 18.605500 0.000000 0.000000 0.000000
Mg 6.418000 0.000000 18.605500 0.000000 0.000000 0.000000
Mg 9.627000 0.000000 18.605500 0.000000 0.000000 0.000000
Mg 1.604500 2.779076 18.605500 0.000000 0.000000 0.000000
Mg 4.813500 2.779076 18.605500 0.000000 0.000000 0.000000
Mg 8.022500 2.779076 18.605500 0.000000 0.000000 0.000000
Mg 11.231500 2.779076 18.605500 0.000000 0.000000 0.000000
Mg 3.209000 5.558151 18.605500 0.000000 0.000000 0.000000
Mg 6.418000 5.558151 18.605500 0.000000 0.000000 0.000000
Mg 9.627000 5.558151 18.605500 0.000000 0.000000 0.000000
Mg 12.836000 5.558151 18.605500 0.000000 0.000000 0.000000
Mg 4.813500 8.337227 18.605500 0.000000 0.000000 0.000000
Mg 8.022500 8.337227 18.605500 0.000000 0.000000 0.000000
Mg 11.231500 8.337227 18.605500 0.000000 0.000000 0.000000
Mg 14.440500 8.337227 18.605500 0.000000 0.000000 0.000000
Mg -1.635657 1.328947 21.136942 0.000000 0.000000 0.000000
Mg 1.828326 0.162982 22.460521 0.000000 0.000000 0.000000
Mg 4.430302 0.267700 21.449578 0.000000 0.000000 0.000000
Mg 8.111423 0.773130 20.901946 0.000000 0.000000 0.000000
Mg -0.244269 3.620722 21.861360 0.000000 0.000000 0.000000
Mg 3.094045 2.938961 21.805248 0.000000 0.000000 0.000000
Mg 6.521349 1.591824 23.476472 0.000000 0.000000 0.000000
Mg 6.307958 3.350716 21.472022 0.000000 0.000000 0.000000
Mg 1.777032 5.989533 21.046851 0.000000 0.000000 0.000000
Mg 4.169175 7.054054 21.297369 0.000000 0.000000 0.000000
Mg 9.337125 4.264120 21.510144 0.000000 0.000000 0.000000
Mg 11.245110 6.734711 20.937628 0.000000 0.000000 0.000000
Mg 3.183950 9.752487 21.071610 0.000000 0.000000 0.000000
Mg 6.187551 9.310318 20.867801 0.000000 0.000000 0.000000
Mg 8.962795 8.701045 21.368731 0.000000 0.000000 0.000000
Mg 12.933695 9.424824 21.771371 0.000000 0.000000 0.000000
Mg -1.466306 -0.983788 23.735168 0.000000 0.000000 0.000000
Mg 1.420330 -0.737104 25.379933 0.000000 0.000000 0.000000
Mg 5.257353 -0.899788 24.340298 0.000000 0.000000 0.000000
Mg 8.521068 -1.098160 24.155455 0.000000 0.000000 0.000000
Mg -0.206428 1.496129 24.427025 0.000000 0.000000 0.000000
Mg 3.664130 2.054409 24.812435 0.000000 0.000000 0.000000
Mg 7.913781 1.979163 26.260035 0.000000 0.000000 0.000000
Mg 9.464127 2.385766 23.328256 0.000000 0.000000 0.000000
Mg 1.679948 4.550164 23.829968 0.000000 0.000000 0.000000
Mg 4.862829 5.266967 24.249645 0.000000 0.000000 0.000000
Mg 7.874085 4.824392 24.388482 0.000000 0.000000 0.000000
Mg 10.937293 4.727119 23.909733 0.000000 0.000000 0.000000
Mg 2.934604 7.439701 23.827084 0.000000 0.000000 0.000000
Mg 6.523770 7.820752 23.462169 0.000000 0.000000 0.000000
Mg 9.671354 7.798644 24.256791 0.000000 0.000000 0.000000
Mg 12.839404 7.225372 23.577809 0.000000 0.000000 0.000000
Mg 7.304152 11.888461 28.819157 0.483119 -3.725541 0.161999
Mg 22.250159 2.955489 26.182804 9.951066 8.850757 -1.181791
Cl 6.383043 9.495561 30.084041 0.442666 0.770571 0.058730
Cl 3.428931 11.601374 26.249828 -0.593434 -0.639989 0.500103
Cl -5.374441 3.935382 27.295695 -0.390658 0.822544 0.859081
O  7.758658 -1.784278 26.195662 0.409142 1.712023 0.397089
C  7.691601 -3.010520 26.886930 -0.869419 -1.561427 0.090794
C  7.537830 -2.713636 28.356501 0.648781 -0.545649 0.638672
C  6.681915 -1.457979 28.418300 0.120187 0.541187 -0.307030
C  7.055026 -0.807879 27.057297 -1.966959 -2.105386 -0.403393
H  8.580136 -3.599552 26.702660 0.478992 -0.347166 -0.416274
H  6.794928 -3.523795 26.480512 0.186512 -0.288277 0.212721
H  8.529986 -2.500071 28.787033 -0.090439 0.024457 -0.035924
H  7.166339 -3.617452 28.870340 -0.252259 0.336755 0.086053
H  7.064730 -0.729398 29.169166 -0.519869 -0.636828 0.137152
H  5.588444 -1.675179 28.538048 0.782960 0.260255 -0.226288
H  7.695311 0.007164 27.201529 1.047606 1.270622 0.285778
H  6.168071 -0.587064 26.457744 -0.315096 0.697739 0.249019
O  3.876582 10.770504 34.783965 -0.161037 0.004076 -0.662351
C  5.044068 11.395432 35.250186 0.530418 0.683297 0.476429
C  6.265232 10.695711 34.563877 1.069403 0.800608 1.745453
C  5.745260 9.253893 34.655559 0.718570 -2.686981 -1.347799
C  4.188360 9.377199 34.648615 -1.734025 -0.961404 1.978019
H  5.081672 11.283191 36.375153 0.357909 0.179640 -0.770229
H  4.965685 12.458964 34.987010 0.004058 0.093185 0.133167
H  7.165364 10.954903 35.254322 -1.088839 -0.868852 -1.009223
H  7.245447 13.024402 34.230803 0.307887 0.210397 0.697342
H  6.242047 8.599439 35.477758 -1.094822 1.258962 -0.978194
H  5.946312 8.661393 33.681580 0.260766 0.855641 1.277097
H  3.584191 8.922360 35.519035 1.399300 -0.073942 -0.741949
H  3.650350 8.938635 33.771209 0.636812 0.556344 0.037083
O  4.349713 7.115002 25.992644 -0.535988 -0.571347 -1.829119
C  7.482623 10.641560 27.367850 1.618326 -4.224575 0.117496
C  6.173382 10.189800 26.975870 -1.238366 0.969430 0.802838
C  6.013830 8.741585 26.762141 -0.477164 -1.739356 -0.104876
C  4.580710 8.475681 26.334596 0.985756 -3.070422 0.470369
H  7.597071 11.570061 27.039977 0.923972 4.731681 -2.148332
H  5.848470 10.868476 26.108035 -0.663280 -0.952601 0.074297
H  4.468549 13.318402 25.235548 0.997337 0.979225 -0.545018
H  5.482870 10.465017 27.833909 -0.337314 -0.546267 -0.900799
H  6.152895 8.259900 27.752023 -0.000175 0.163260 0.038535
H  6.777052 8.137665 26.169064 -0.525397 1.053247 -0.119143
H  4.251247 9.105268 25.512118 -0.229801 0.854289 -0.131980
H  4.011391 8.596977 27.232932 -0.987102 1.111056 0.587582
O  6.956113 13.659443 27.551274 -1.398258 2.169172 0.413049
C  6.777455 15.112964 27.147423 -0.803209 0.083189 -0.499762
C  5.562966 15.673514 27.983729 2.161890 -0.908438 1.464063
C  4.732632 14.486472 28.508850 1.131160 -0.743161 0.499102
C  5.712918 13.323269 28.322533 -0.110674 -1.592264 -0.779985
H  6.383512 15.092955 26.121988 0.310283 -0.277986 -0.361849
H  7.746212 15.724576 27.085982 -1.077487 -1.038157 0.726153
H  5.039492 16.446725 27.470676 -0.572494 0.745444 -0.537795
H  6.030284 16.057594 28.905812 -0.307930 0.544413 -0.104400
H  3.817872 14.152866 27.996966 -0.225775 0.515529 0.312666
H  4.475756 14.561489 29.621726 0.020757 0.091058 -1.486622
H  5.293776 12.383060 27.816140 -0.051597 1.366109 0.527559
H  6.036413 12.989129 29.334685 -0.850109 0.860989 0.629103
O  9.420733 12.457859 28.198473 -0.085064 -0.332978 -0.347756
C  10.871732 12.216086 28.167382 -0.796103 1.726250 1.073736
C  11.232342 13.144563 29.332501 1.255937 -0.018343 -0.414945
C  10.209070 12.847284 30.419402 0.230599 0.453789 -0.529046
C  8.985175 12.484467 29.605289 3.100064 0.209386 0.079247
H  11.307738 12.433810 27.182132 -0.409757 0.861909 -0.146620
H  11.090978 11.197504 28.252159 0.017729 -1.968599 0.848653
H  11.101981 14.126393 28.935168 -0.253844 1.151711 -0.324384
H  12.269146 13.155827 29.686435 0.113619 -0.488244 0.149048
H  10.052018 13.659559 31.135835 0.063670 -0.078082 0.026714
H  10.566132 11.967749 30.887109 0.276485 -1.024726 1.246886
H  8.235751 13.268670 29.622933 -0.171584 0.902181 0.575667
H  8.625630 11.462561 29.912662 0.666293 0.178823 0.502601
O  9.438677 8.750850 28.700582 -0.123199 -1.155877 -1.472862
C  9.402520 7.422524 28.071881 0.588972 0.888977 1.205017
C  9.030925 6.474551 29.226102 1.582435 -1.652503 -0.727386
C  9.216165 7.215266 30.545706 -0.122637 0.564099 0.250010
C  9.858575 8.509694 30.029719 1.975593 -0.165018 -0.127015
H  10.332191 7.247933 27.509594 0.615794 -0.254657 0.553677
H  8.693004 7.357713 27.290057 -1.475686 0.519110 -0.908440
H  9.675948 5.556651 29.159430 -0.272778 0.633582 0.286419
H  8.064659 6.067241 29.052298 -1.288412 -0.135448 0.088869
H  9.801743 6.625591 31.288040 -0.107534 0.528297 -0.411183
H  8.268218 7.530077 31.016303 -0.029698 -0.419776 -0.222758
H  10.981759 8.477605 30.018845 -0.465504 -0.258336 0.392640
H  9.587058 9.413185 30.514737 -0.412819 0.893417 1.194551
Al 9.280060 0.922773 31.031232 -1.145218 -1.482885 0.951283
Cl 9.834350 -0.117163 29.227873 -0.195459 -0.395902 -0.386758
Cl 8.313784 2.686144 30.252377 -0.096308 0.668798 0.024080
C  10.935328 1.109529 31.962584 0.573099 1.477311 0.050583
C  11.664386 0.063330 32.389418 0.694051 -0.129165 0.289460
C  13.028813 0.113507 33.128552 -1.343246 -0.609274 -0.621989
C  13.599949 1.583314 33.205665 1.075619 -1.428331 -2.362648
C  12.809015 2.638908 32.425449 1.092614 0.566024 0.336730
C  11.550082 2.452845 32.003924 -0.541307 -0.927835 -0.218304
H  11.212387 -0.911650 32.316159 0.118191 -0.471765 -0.133565
H  13.734515 -0.627310 32.552901 -1.098275 1.204354 1.163453
H  14.660875 1.402503 32.780077 -1.159334 1.068914 0.802663
H  13.274678 3.624023 32.309811 -0.016907 -0.110622 0.255002
H  10.896062 3.250718 31.632346 0.490949 0.271129 0.041337
C  7.810188 -0.082437 32.045112 0.653628 -0.511459 -0.684522
C  6.936960 0.698936 32.783164 -0.777966 2.507506 1.696142
C  5.867248 0.218432 33.563347 -0.397791 -0.745174 0.008867
C  5.548072 -1.169819 33.485492 -0.281719 0.562928 0.834070
C  6.383257 -2.013421 32.741147 0.102851 -0.334422 -0.060381
C  7.536699 -1.468558 32.107932 -0.507039 -1.324657 -0.675834
H  7.089426 1.823250 32.939646 0.087282 -1.412991 -0.681465
H  5.304068 0.920376 34.229697 0.379226 -0.711415 -0.665078
H  4.723006 -1.593009 34.101939 0.452078 0.329674 -0.592882
H  6.125555 -3.111803 32.667522 0.494297 1.220270 0.097341
H  8.137314 -2.246743 31.582853 -0.015092 0.862839 0.156361
172
Lattice="12.836 0 0 6.418 11.116 0 0 0 55" Properties=species:S:1:pos:R:3:forces:R:3 energy=-124886.789629 charge=0 pbc="T T T" config_type=near_mg_bare_seed1 dft_level=gamma
Mg 0.000000 1.852717 16.000000 0.000000 0.000000 0.000000
Mg 3.209000 1.852717 16.000000 0.000000 0.000000 0.000000
Mg 6.418000 1.852717 16.000000 0.000000 0.000000 0.000000
Mg 9.627000 1.852717 16.000000 0.000000 0.000000 0.000000
Mg 1.604500 4.631793 16.000000 0.000000 0.000000 0.000000
Mg 4.813500 4.631793 16.000000 0.000000 0.000000 0.000000
Mg 8.022500 4.631793 16.000000 0.000000 0.000000 0.000000
Mg 11.231500 4.631793 16.000000 0.000000 0.000000 0.000000
Mg 3.209000 7.410868 16.000000 0.000000 0.000000 0.000000
Mg 6.418000 7.410868 16.000000 0.000000 0.000000 0.000000
Mg 9.627000 7.410868 16.000000 0.000000 0.000000 0.000000
Mg 12.836000 7.410868 16.000000 0.000000 0.000000 0.000000
Mg 4.813500 10.189944 16.000000 0.000000 0.000000 0.000000
Mg 8.022500 10.189944 16.000000 0.000000 0.000000 0.000000
Mg 11.231500 10.189944 16.000000 0.000000 0.000000 0.000000
Mg 14.440500 10.189944 16.000000 0.000000 0.000000 0.000000
Mg 0.000000 0.000000 18.605500 0.000000 0.000000 0.000000
Mg 3.209000 0.000000 18.605500 0.000000 0.000000 0.000000
Mg 6.418000 0.000000 18.605500 0.000000 0.000000 0.000000
Mg 9.627000 0.000000 18.605500 0.000000 0.000000 0.000000
Mg 1.604500 2.779076 18.605500 0.000000 0.000000 0.000000
Mg 4.813500 2.779076 18.605500 0.000000 0.000000 0.000000
Mg 8.022500 2.779076 18.605500 0.000000 0.000000 0.000000
Mg 11.231500 2.779076 18.605500 0.000000 0.000000 0.000000
Mg 3.209000 5.558151 18.605500 0.000000 0.000000 0.000000
Mg 6.418000 5.558151 18.605500 0.000000 0.000000 0.000000
Mg 9.627000 5.558151 18.605500 0.000000 0.000000 0.000000
Mg 12.836000 5.558151 18.605500 0.000000 0.000000 0.000000
Mg 4.813500 8.337227 18.605500 0.000000 0.000000 0.000000
Mg 8.022500 8.337227 18.605500 0.000000 0.000000 0.000000
Mg 11.231500 8.337227 18.605500 0.000000 0.000000 0.000000
Mg 14.440500 8.337227 18.605500 0.000000 0.000000 0.000000
Mg -1.635657 1.328947 21.136942 0.000000 0.000000 0.000000
Mg 1.828326 0.162982 22.460521 0.000000 0.000000 0.000000
Mg 4.430302 0.267700 21.449578 0.000000 0.000000 0.000000
Mg 8.111423 0.773130 20.901946 0.000000 0.000000 0.000000
Mg -0.244269 3.620722 21.861360 0.000000 0.000000 0.000000
Mg 3.094045 2.938961 21.805248 0.000000 0.000000 0.000000
Mg 6.521349 1.591824 23.476472 0.000000 0.000000 0.000000
Mg 6.307958 3.350716 21.472022 0.000000 0.000000 0.000000
Mg 1.777032 5.989533 21.046851 0.000000 0.000000 0.000000
Mg 4.169175 7.054054 21.297369 0.000000 0.000000 0.000000
Mg 9.337125 4.264120 21.510144 0.000000 0.000000 0.000000
Mg 11.245110 6.734711 20.937628 0.000000 0.000000 0.000000
Mg 3.183950 9.752487 21.071610 0.000000 0.000000 0.000000
Mg 6.187551 9.310318 20.867801 0.000000 0.000000 0.000000
Mg 8.962795 8.701045 21.368731 0.000000 0.000000 0.000000
Mg 12.933695 9.424824 21.771371 0.000000 0.000000 0.000000
Mg -1.466306 -0.983788 23.735168 0.000000 0.000000 0.000000
Mg 1.420330 -0.737104 25.379933 0.000000 0.000000 0.000000
Mg 5.257353 -0.899788 24.340298 0.000000 0.000000 0.000000
Mg 8.521068 -1.098160 24.155455 0.000000 0.000000 0.000000
Mg -0.206428 1.496129 24.427025 0.000000 0.000000 0.000000
Mg 3.664130 2.054409 24.812435 0.000000 0.000000 0.000000
Mg 7.913781 1.979163 26.260035 0.000000 0.000000 0.000000
Mg 9.464127 2.385766 23.328256 0.000000 0.000000 0.000000
Mg 1.679948 4.550164 23.829968 0.000000 0.000000 0.000000
Mg 4.862829 5.266967 24.249645 0.000000 0.000000 0.000000
Mg 7.874085 4.824392 24.388482 0.000000 0.000000 0.000000
Mg 10.937293 4.727119 23.909733 0.000000 0.000000 0.000000
Mg 2.934604 7.439701 23.827084 0.000000 0.000000 0.000000
Mg 6.523770 7.820752 23.462169 0.000000 0.000000 0.000000
Mg 9.671354 7.798644 24.256791 0.000000 0.000000 0.000000
Mg 12.839404 7.225372 23.577809 0.000000 0.000000 0.000000
Mg 7.475011 11.271469 28.741313 -0.109571 -0.363873 -3.445189
Mg 22.906550 3.266021 25.588413 2.077947 1.214706 3.649196
Cl 7.208343 10.107650 30.653718 0.219876 0.003094 0.670513
Cl 3.898052 11.770029 25.476405 0.295384 -0.650453 -0.096356
Cl -6.667608 3.802410 26.018695 -0.780006 0.363592 0.641098
O  7.986472 -1.577698 26.208677 -0.713556 -0.604576 1.107448
C  8.118306 -2.900732 26.819784 0.431673 -0.598572 1.447854
C  6.719888 -3.377892 27.249005 0.202822 -1.053835 -0.188579
C  6.047302 -2.080896 27.599092 -1.500586 1.625055 0.998326
C  6.836238 -0.944767 26.926307 0.033128 -0.634888 -1.078965
H  8.742729 -2.856718 27.733012 0.057148 0.473939 -0.339006
H  8.632983 -3.608730 26.157151 -0.134074 0.156702 -0.386278
H  6.709888 -4.086719 28.150717 0.280668 0.813286 -1.258138
H  6.258417 -3.897969 26.383702 -0.121212 0.120753 0.251305
H  6.041559 -1.931925 28.710428 0.080266 -0.103062 -0.792102
H  4.970779 -1.933111 27.273900 0.807984 -0.613965 0.170563
H  7.211527 -0.157131 27.585340 0.097408 -0.018716 0.269348
H  6.240562 -0.469007 26.091635 0.480723 0.069477 0.963621
O  2.413509 11.927589 36.153439 -0.685172 0.409538 1.117221
C  2.931051 13.034648 35.438777 -1.553817 -1.744057 -4.511320
C  4.307977 12.563426 34.882015 0.048349 -0.003817 0.415266
C  4.338622 11.003934 35.030172 -0.938774 -0.051729 -0.041609
C  2.895204 10.727402 35.617735 1.811700 -1.535218 0.589453
H  2.941802 13.880506 36.047008 0.172959 1.587790 1.357345
H  2.198255 13.301674 34.484336 1.642469 -0.624855 2.167476
H  5.085170 12.959822 35.536997 0.044437 0.018178 0.505316
H  4.760654 15.173549 34.376949 0.551099 -0.081673 0.977564
H  5.178486 10.647233 35.632362 -0.123984 0.290074 0.608075
H  4.453891 10.376226 34.129768 -0.131578 0.666660 -0.308791
H  2.970172 9.965394 36.460467 -0.419555 0.747321 -0.885538
H  2.308233 10.315363 34.787665 -0.499693 0.118775 0.074392
O  4.836925 7.428526 24.285715 0.239942 -0.127160 2.009972
C  6.761352 10.152531 27.162554 -1.114299 0.037606 -0.647953
C  6.364371 8.733028 27.632064 1.888739 0.303875 -0.517570
C  6.098735 7.809629 26.448434 -0.201826 -2.213079 1.288807
C  5.210469 8.312586 25.371321 0.937682 0.746315 -0.085790
H  5.810267 10.617316 26.762164 0.732535 -0.272394 0.491222
H  5.507124 8.870508 28.289035 -0.315981 -0.454736 0.353131
H  3.312591 11.748231 20.279109 0.437291 -0.309636 -0.087007
H  7.235303 8.206636 28.183080 -1.508688 1.088001 -0.464449
H  5.810757 6.813614 26.831319 -0.689627 0.036721 -0.011076
H  7.054506 7.483985 26.004662 0.283519 0.464897 -0.201391
H  5.952786 9.106065 24.942398 -0.172841 -0.607363 0.319917
H  4.451945 9.025070 25.648137 -1.236090 -0.185470 0.886462
O  6.725097 13.150703 28.911240 -0.965534 1.289012 -0.448319
C  6.168814 13.856688 27.698613 1.369327 1.187243 0.683002
C  5.054242 14.772133 28.249669 0.376413 0.453770 -0.011749
C  5.472360 15.072603 29.710896 0.455369 -0.183431 -0.415052
C  5.997131 13.716636 30.106023 0.492886 -1.895392 0.741728
H  5.780156 13.076899 27.035780 0.266086 -0.035897 -0.199776
H  7.070513 14.475718 27.278873 -1.665004 -1.144969 0.250582
H  4.104468 14.252004 28.337672 -0.279496 -0.652841 -0.111086
H  4.798843 15.646594 27.624398 0.589548 0.041349 0.146690
H  4.576826 15.325281 30.286080 0.071877 0.150343 0.269769
H  6.285124 15.824369 29.854167 -0.637687 -0.182188 -0.393677
H  5.214820 12.948425 30.426613 0.948108 1.156218 -0.593001
H  6.805537 13.729902 30.851924 -0.309952 0.113890 0.257844
O  9.462465 11.595531 28.176426 -0.198971 -1.085462 -1.028604
C  9.864674 12.737473 27.415038 0.048023 1.827598 1.846513
C  10.118543 13.825397 28.527155 -0.272845 -0.015391 0.214788
C  10.158013 12.988000 29.834539 -0.001898 1.551023 1.330357
C  10.237314 11.576117 29.382543 1.536518 0.501532 -0.146746
H  9.031336 13.012147 26.765665 -0.405822 -0.049775 -0.070692
H  10.800754 12.650393 26.838887 0.157621 -0.786029 0.191397
H  9.273645 14.514099 28.666885 0.103689 0.111209 -0.585718
H  11.048824 14.397051 28.380188 -0.223329 -0.171190 -0.164970
H  9.212688 13.135944 30.401828 0.351789 0.000977 -0.155369
H  10.992387 13.366256 30.477819 -0.423190 -0.624764 -0.290957
H  9.885658 10.816690 30.041121 -0.827863 -0.678479 0.635490
H  11.262481 11.327973 29.152536 0.694305 -0.245157 -0.369926
O  8.800820 5.679189 27.355784 0.646484 -0.127499 0.713420
C  8.275716 5.181035 28.624763 -1.100180 0.884818 -0.735839
C  8.374224 6.332459 29.578563 0.635007 1.808885 0.102429
C  9.796893 6.950366 29.232666 -1.085285 -1.454767 -2.869356
C  9.585360 6.905107 27.625883 -0.297279 -0.561310 -0.107930
H  8.734973 4.306477 29.004303 1.414267 -1.010728 0.218989
H  7.290083 4.802001 28.369291 -0.661931 0.336702 0.161957
H  8.423382 6.116277 30.640577 -0.572805 -0.440224 0.370205
H  7.592668 7.149100 29.361838 0.988657 -1.215552 0.615131
H  10.678684 6.392723 29.593343 -0.432107 -0.182599 -0.279774
H  9.901451 7.938234 29.571212 0.007065 1.730397 0.518861
H  10.370221 6.828436 26.837591 0.456615 0.135110 0.987433
H  8.931412 7.726363 27.255819 0.327297 0.175054 0.588903
Al 8.657437 0.700492 30.319571 0.614349 0.193612 -1.193265
Cl 10.118633 0.350331 28.516915 -0.560412 -0.015682 1.052761
Cl 7.296012 2.125966 29.289079 -0.641305 -0.141977 -0.410428
C  9.512518 1.882355 31.627431 -0.324042 -0.758929 -0.067820
C  10.538420 1.333592 32.321268 0.315245 -0.442090 1.182998
C  11.171321 2.005685 33.523514 1.181493 -0.484865 0.234949
C  11.099208 3.515093 33.451928 -1.968781 0.701719 -1.144371
C  9.702941 3.969807 32.900416 2.474609 -0.098882 -0.009614
C  9.056978 3.217714 31.999692 0.833098 -0.225999 0.844115
H  10.917842 0.300100 32.189221 -0.361418 0.471253 -0.385084
H  12.242073 1.719971 33.629706 -0.142054 0.113042 -0.911918
H  11.873475 3.920845 32.785813 0.086727 0.054994 -0.134583
H  9.485936 5.002611 33.115087 -0.627140 0.289893 0.090741
H  8.175431 3.642093 31.634546 -1.590738 0.293727 -1.014181
C  7.810138 -1.074149 30.519963 -0.128583 0.874458 0.874874
C  6.513897 -1.269129 31.045142 1.058372 -0.328073 -0.385980
C  6.019152 -2.538617 31.252602 -0.656811 -1.574981 0.573181
C  6.775460 -3.696605 30.981857 0.289800 0.402891 -0.731274
C  8.047902 -3.488832 30.360278 -0.702712 -0.995874 1.551381
C  8.584869 -2.199727 30.259892 -0.307948 -0.511876 -1.323623
H  5.911567 -0.428363 31.253591 -0.801401 1.005257 0.347595
H  5.023363 -2.746952 31.655930 0.016849 0.522127 0.009411
H  6.283377 -4.690393 31.182445 0.893857 0.926551 -0.321128
H  8.639084 -4.372146 30.134820 0.209282 -0.006851 -0.241309
H  9.502645 -2.033174 29.693338 0.324945 -0.257465 0.410591
172
Lattice="12.836 0 0 6.418 11.116 0 0 0 55" Properties=species:S:1:pos:R:3:forces:R:3 energy=-124884.347215 charge=0 pbc="T T T" config_type=near_mg_bare_seed2 dft_level=gamma
Mg 0.000000 1.852717 16.000000 0.000000 0.000000 0.000000
Mg 3.209000 1.852717 16.000000 0.000000 0.000000 0.000000
Mg 6.418000 1.852717 16.000000 0.000000 0.000000 0.000000
Mg 9.627000 1.852717 16.000000 0.000000 0.000000 0.000000
Mg 1.604500 4.631793 16.000000 0.000000 0.000000 0.000000
Mg 4.813500 4.631793 16.000000 0.000000 0.000000 0.000000
Mg 8.022500 4.631793 16.000000 0.000000 0.000000 0.000000
Mg 11.231500 4.631793 16.000000 0.000000 0.000000 0.000000
Mg 3.209000 7.410868 16.000000 0.000000 0.000000 0.000000
Mg 6.418000 7.410868 16.000000 0.000000 0.000000 0.000000
Mg 9.627000 7.410868 16.000000 0.000000 0.000000 0.000000
Mg 12.836000 7.410868 16.000000 0.000000 0.000000 0.000000
Mg 4.813500 10.189944 16.000000 0.000000 0.000000 0.000000
Mg 8.022500 10.189944 16.000000 0.000000 0.000000 0.000000
Mg 11.231500 10.189944 16.000000 0.000000 0.000000 0.000000
Mg 14.440500 10.189944 16.000000 0.000000 0.000000 0.000000
Mg 0.000000 0.000000 18.605500 0.000000 0.000000 0.000000
Mg 3.209000 0.000000 18.605500 0.000000 0.000000 0.000000
Mg 6.418000 0.000000 18.605500 0.000000 0.000000 0.000000
Mg 9.627000 0.000000 18.605500 0.000000 0.000000 0.000000
Mg 1.604500 2.779076 18.605500 0.000000 0.000000 0.000000
Mg 4.813500 2.779076 18.605500 0.000000 0.000000 0.000000
Mg 8.022500 2.779076 18.605500 0.000000 0.000000 0.000000
Mg 11.231500 2.779076 18.605500 0.000000 0.000000 0.000000
Mg 3.209000 5.558151 18.605500 0.000000 0.000000 0.000000
Mg 6.418000 5.558151 18.605500 0.000000 0.000000 0.000000
Mg 9.627000 5.558151 18.605500 0.000000 0.000000 0.000000
Mg 12.836000 5.558151 18.605500 0.000000 0.000000 0.000000
Mg 4.813500 8.337227 18.605500 0.000000 0.000000 0.000000
Mg 8.022500 8.337227 18.605500 0.000000 0.000000 0.000000
Mg 11.231500 8.337227 18.605500 0.000000 0.000000 0.000000
Mg 14.440500 8.337227 18.605500 0.000000 0.000000 0.000000
Mg -1.635657 1.328947 21.136942 0.000000 0.000000 0.000000
Mg 1.828326 0.162982 22.460521 0.000000 0.000000 0.000000
Mg 4.430302 0.267700 21.449578 0.000000 0.000000 0.000000
Mg 8.111423 0.773130 20.901946 0.000000 0.000000 0.000000
Mg -0.244269 3.620722 21.861360 0.000000 0.000000 0.000000
Mg 3.094045 2.938961 21.805248 0.000000 0.000000 0.000000
Mg 6.521349 1.591824 23.476472 0.000000 0.000000 0.000000
Mg 6.307958 3.350716 21.472022 0.000000 0.000000 0.000000
Mg 1.777032 5.989533 21.046851 0.000000 0.000000 0.000000
Mg 4.169175 7.054054 21.297369 0.000000 0.000000 0.000000
Mg 9.337125 4.264120 21.510144 0.000000 0.000000 0.000000
Mg 11.245110 6.734711 20.937628 0.000000 0.000000 0.000000
Mg 3.183950 9.752487 21.071610 0.000000 0.000000 0.000000
Mg 6.187551 9.310318 20.867801 0.000000 0.000000 0.000000
Mg 8.962795 8.701045 21.368731 0.000000 0.000000 0.000000
Mg 12.933695 9.424824 21.771371 0.000000 0.000000 0.000000
Mg -1.466306 -0.983788 23.735168 0.000000 0.000000 0.000000
Mg 1.420330 -0.737104 25.379933 0.000000 0.000000 0.000000
Mg 5.257353 -0.899788 24.340298 0.000000 0.000000 0.000000
Mg 8.521068 -1.098160 24.155455 0.000000 0.000000 0.000000
Mg -0.206428 1.496129 24.427025 0.000000 0.000000 0.000000
Mg 3.664130 2.054409 24.812435 0.000000 0.000000 0.000000
Mg 7.913781 1.979163 26.260035 0.000000 0.000000 0.000000
Mg 9.464127 2.385766 23.328256 0.000000 0.000000 0.000000
Mg 1.679948 4.550164 23.829968 0.000000 0.000000 0.000000
Mg 4.862829 5.266967 24.249645 0.000000 0.000000 0.000000
Mg 7.874085 4.824392 24.388482 0.000000 0.000000 0.000000
Mg 10.937293 4.727119 23.909733 0.000000 0.000000 0.000000
Mg 2.934604 7.439701 23.827084 0.000000 0.000000 0.000000
Mg 6.523770 7.820752 23.462169 0.000000 0.000000 0.000000
Mg 9.671354 7.798644 24.256791 0.000000 0.000000 0.000000
Mg 12.839404 7.225372 23.577809 0.000000 0.000000 0.000000
Mg 6.736193 12.295794 28.451507 -0.740129 -0.433105 3.176319
Mg 22.781388 3.521401 25.270225 -3.441720 -1.413957 9.395185
Cl 6.134524 11.875202 30.600113 -0.068213 -0.117247 0.457937
Cl 3.586836 11.938660 25.232266 0.239524 -0.856698 0.334031
Cl -9.955302 5.386206 25.773098 0.182757 0.223262 0.807283
O  8.108894 -1.577228 26.334130 -0.562735 0.597105 0.945952
C  8.514364 -2.669760 27.219643 -1.641264 0.516072 1.723577
C  7.154299 -3.335192 27.608481 -0.635633 0.511532 0.868662
C  6.090802 -2.120800 27.711761 3.406070 0.418395 1.158073
C  7.044279 -0.952190 27.144941 -3.036971 -0.608249 -1.623142
H  8.921075 -2.237334 28.173480 0.236486 -0.211582 -0.862903
H  9.205425 -3.315586 26.713686 0.384725 -0.336149 -0.270618
H  7.167498 -3.751665 28.670296 0.289516 -0.254124 -1.540114
H  6.880482 -4.016269 26.776823 -0.072368 -0.109457 0.658692
H  5.879236 -1.860219 28.781590 0.216700 -0.332385 -0.579319
H  5.138457 -2.291563 27.252156 -0.452441 -0.007789 -0.986080
H  7.436127 -0.323043 27.926120 0.380780 0.004899 0.477074
H  6.355401 -0.331284 26.481857 1.194583 -0.235520 0.386697
O  0.356487 14.077705 35.892823 -0.640899 0.583731 0.447717
C  1.263361 14.523095 34.898435 0.579052 -2.469835 -0.820985
C  2.439047 13.511438 35.021541 1.231067 0.603303 0.679968
C  1.788078 12.175789 35.394086 -1.061524 1.090227 -0.551717
C  0.583629 12.705902 36.220519 0.274453 -0.853108 -0.849845
H  1.587363 15.506219 35.092147 0.294846 1.580023 0.421768
H  0.827049 14.472238 33.885353 -0.069264 0.017439 0.027542
H  3.081146 13.834116 35.890668 -0.812319 -0.066081 -0.182946
H  3.984100 15.452141 34.496223 0.064771 0.557689 0.436498
H  2.485348 11.575709 35.983620 -0.174087 -0.415434 -0.196814
H  1.376817 11.695801 34.484909 0.559052 -0.244588 0.325516
H  0.855089 12.591273 37.244592 -0.098912 0.235575 1.362771
H  -0.326763 12.133180 36.017674 -0.158067 -0.063678 0.053842
O  4.928142 7.412316 24.229913 -1.876810 0.917482 2.030672
C  6.346516 10.722700 26.984853 -0.068891 -0.864295 -0.308072
C  5.523496 9.438069 27.405153 2.615668 -0.759342 1.573577
C  5.626056 8.121231 26.513172 -1.471086 -0.218629 1.304619
C  5.108742 8.551835 25.198348 0.294127 -2.451994 0.692455
H  5.614404 11.319567 26.467159 -0.570732 0.537541 -0.532877
H  4.472135 9.672786 27.508788 -0.538332 0.108826 -0.019013
H  3.316471 11.651713 20.448171 0.538635 -0.596172 -0.598695
H  5.885110 9.142265 28.449731 -0.580481 0.210065 -1.031604
H  4.950068 7.300137 26.927534 0.504231 0.945268 -0.268163
H  6.558051 7.578668 26.330298 0.707961 0.430787 0.479074
H  6.015239 9.166233 24.771484 -0.643297 -0.215229 0.975632
H  4.150963 9.080184 25.382413 0.107272 0.190840 -0.299969
O  6.250180 14.344568 28.239753 0.022589 -0.485961 -1.067436
C  6.083309 15.124484 27.007271 0.370625 0.568844 0.801167
C  4.911545 16.030310 27.356850 -0.652668 1.975269 -1.898494
C  4.837352 16.239539 28.851307 0.369591 -2.483932 -0.320686
C  5.538060 14.983154 29.369218 1.984418 -0.064205 1.038498
H  5.930277 14.439347 26.132826 -0.011415 0.325681 0.582364
H  7.006906 15.731148 26.786279 -0.552658 -0.549969 0.277571
H  3.898526 15.630544 26.985463 1.055748 0.429676 0.698755
H  5.017448 17.057689 26.868966 -0.235496 -1.276659 0.102271
H  3.809610 16.172539 29.091778 -1.337699 0.159307 0.692905
H  5.227279 17.146634 29.219745 0.794236 1.219754 0.373875
H  4.963579 14.185657 29.829435 -0.652138 0.053963 0.060046
H  6.412084 15.138193 30.047786 -0.834662 0.486801 0.105358
O  8.749335 12.455415 28.396109 0.694918 0.161595 -0.822613
C  9.462451 13.546127 27.732626 -0.223840 0.678816 1.840122
C  9.727835 14.570482 28.888640 1.548972 -1.157138 -1.001308
C  9.799767 13.659379 30.130086 0.839565 0.821121 0.324641
C  9.476618 12.259822 29.607204 -0.676005 0.126507 1.798240
H  8.746533 13.883832 27.023637 -0.326093 0.602205 -1.173845
H  10.428135 13.207336 27.336722 -0.002866 -0.249507 -0.207062
H  8.979441 15.294131 28.977054 -1.728807 1.083491 -0.018540
H  10.649621 15.150876 28.714174 -0.027639 -0.334155 -0.018900
H  9.090992 14.085048 30.871202 0.308208 -0.734071 -0.039600
H  10.851467 13.677197 30.508100 -0.813218 0.051462 0.159787
H  8.796011 11.759225 30.325925 0.371033 -0.284518 -0.381341
H  10.373193 11.695306 29.382942 0.361190 -0.350395 0.022517
O  5.589236 7.647066 30.605715 0.199704 0.018119 0.086391
C  5.235734 8.102589 31.983659 1.362600 0.285957 -1.680178
C  6.585146 8.185033 32.708034 -0.875169 0.386260 -0.957958
C  7.319781 7.029439 32.073357 2.405522 -0.606877 0.021720
C  6.983386 7.240159 30.568435 -0.082649 -1.076194 0.407278
H  4.556372 7.404305 32.422988 -0.492474 -0.894378 0.444284
H  4.706641 9.017108 31.793163 -0.211441 0.974763 0.286452
H  6.420518 8.177111 33.749906 0.002191 -0.433218 1.665145
H  7.103996 9.127874 32.503675 -0.075965 0.110508 -0.308318
H  7.105462 6.003299 32.444393 -0.746469 0.493575 -0.290352
H  8.425916 7.046312 32.328048 -0.783753 0.426088 -0.578660
H  7.051226 6.302834 29.979782 -0.209097 -0.018397 0.282034
H  7.664044 7.925585 30.013545 -0.476660 0.388661 0.565869
Al 8.204847 1.418387 29.976494 -0.633057 0.339469 0.651033
Cl 9.510987 1.200632 28.214856 0.257551 0.134951 0.109601
Cl 6.484513 2.686212 29.062586 0.957005 -0.527061 -0.229497
C  8.949981 2.422839 31.489921 0.841493 -0.374399 0.130963