172
Lattice="12.836 0.0 0.0 6.418 11.116 0.0 0.0 0.0 55.0" Properties=species:S:1:pos:R:3:forces:R:3 energy=-124889.974132 charge=0 config_type=react_bare_steerstrip_t0 pbc="T T T"
Mg     0.000000     1.852717    16.000000     0.00000     0.00000     0.00000
Mg     3.209000     1.852717    16.000000     0.00000     0.00000     0.00000
Mg     6.418000     1.852717    16.000000     0.00000     0.00000     0.00000
Mg     9.627000     1.852717    16.000000     0.00000     0.00000     0.00000
Mg     1.604500     4.631793    16.000000     0.00000     0.00000     0.00000
Mg     4.813500     4.631793    16.000000     0.00000     0.00000     0.00000
Mg     8.022500     4.631793    16.000000     0.00000     0.00000     0.00000
Mg    11.231500     4.631793    16.000000     0.00000     0.00000     0.00000
Mg     3.209000     7.410868    16.000000     0.00000     0.00000     0.00000
Mg     6.418000     7.410868    16.000000     0.00000     0.00000     0.00000
Mg     9.627000     7.410868    16.000000     0.00000     0.00000     0.00000
Mg    12.836000     7.410868    16.000000     0.00000     0.00000     0.00000
Mg     4.813500    10.189944    16.000000     0.00000     0.00000     0.00000
Mg     8.022500    10.189944    16.000000     0.00000     0.00000     0.00000
Mg    11.231500    10.189944    16.000000     0.00000     0.00000     0.00000
Mg    14.440500    10.189944    16.000000     0.00000     0.00000     0.00000
Mg     0.000000     0.000000    18.605500     0.00000     0.00000     0.00000
Mg     3.209000     0.000000    18.605500     0.00000     0.00000     0.00000
Mg     6.418000     0.000000    18.605500     0.00000     0.00000     0.00000
Mg     9.627000     0.000000    18.605500     0.00000     0.00000     0.00000
Mg     1.604500     2.779076    18.605500     0.00000     0.00000     0.00000
Mg     4.813500     2.779076    18.605500     0.00000     0.00000     0.00000
Mg     8.022500     2.779076    18.605500     0.00000     0.00000     0.00000
Mg    11.231500     2.779076    18.605500     0.00000     0.00000     0.00000
Mg     3.209000     5.558151    18.605500     0.00000     0.00000     0.00000
Mg     6.418000     5.558151    18.605500     0.00000     0.00000     0.00000
Mg     9.627000     5.558151    18.605500     0.00000     0.00000     0.00000
Mg    12.836000     5.558151    18.605500     0.00000     0.00000     0.00000
Mg     4.813500     8.337227    18.605500     0.00000     0.00000     0.00000
Mg     8.022500     8.337227    18.605500     0.00000     0.00000     0.00000
Mg    11.231500     8.337227    18.605500     0.00000     0.00000     0.00000
Mg    14.440500     8.337227    18.605500     0.00000     0.00000     0.00000
Mg    -1.270938     1.131087    21.134087     0.00000     0.00000     0.00000
Mg     1.812864     0.187143    22.455904     0.00000     0.00000     0.00000
Mg     4.761878     0.227094    21.451891     0.00000     0.00000     0.00000
Mg     8.121577     1.082783    20.926954     0.00000     0.00000     0.00000
Mg    -0.005754     3.724804    21.861797     0.00000     0.00000     0.00000
Mg     3.068858     2.931056    21.809821     0.00000     0.00000     0.00000
Mg     6.475478     1.428326    23.695041     0.00000     0.00000     0.00000
Mg     5.998521     3.606233    21.468171     0.00000     0.00000     0.00000
Mg     1.511885     5.984484    21.054384     0.00000     0.00000     0.00000
Mg     4.425143     6.898956    21.299358     0.00000     0.00000     0.00000
Mg     9.204726     4.493663    21.357492     0.00000     0.00000     0.00000
Mg    11.251526     6.717451    21.173700     0.00000     0.00000     0.00000
Mg     3.171380     9.575990    21.072922     0.00000     0.00000     0.00000
Mg     6.147631     9.588402    21.171925     0.00000     0.00000     0.00000
Mg     9.349483     8.643393    21.378340     0.00000     0.00000     0.00000
Mg    13.144406     9.339183    21.780502     0.00000     0.00000     0.00000
Mg    -1.474552    -0.969918    23.740354     0.00000     0.00000     0.00000
Mg     1.439189    -0.769552    25.355511     0.00000     0.00000     0.00000
Mg     4.735372    -0.811398    24.308903     0.00000     0.00000     0.00000
Mg     8.243041    -0.948757    24.248817     0.00000     0.00000     0.00000
Mg    -0.022820     1.838656    24.414321     0.00000     0.00000     0.00000
Mg     3.757580     1.960119    24.311429     0.00000     0.00000     0.00000
Mg     7.834480     1.624691    27.280984     0.00000     0.00000     0.00000
Mg     9.270126     2.055443    23.334067     0.00000     0.00000     0.00000
Mg     2.014361     4.606940    23.840245     0.00000     0.00000     0.00000
Mg     4.902392     5.310400    24.251524     0.00000     0.00000     0.00000
Mg     7.888962     4.817268    24.392480     0.00000     0.00000     0.00000
Mg    10.953954     5.311673    23.897664     0.00000     0.00000     0.00000
Mg     2.984289     7.423788    23.826796     0.00000     0.00000     0.00000
Mg     6.531306     7.522827    22.991646     0.00000     0.00000     0.00000
Mg     9.686952     7.751015    24.245234     0.00000     0.00000     0.00000
Mg    12.937586     7.280581    23.586473     0.00000     0.00000     0.00000
Mg     7.452503    11.217264    28.742271    -0.86685     1.63490    -2.99126
Mg    23.142209     3.322018    26.242175    -2.06795     1.36077     1.01039
Cl     7.138449    10.028339    30.855982     0.40676     0.77733    -0.42848
Cl     3.766165    11.657385    25.403477     0.11714    -0.25854    -0.11139
Cl    -6.866044     4.088305    26.258993     0.05191     0.13683    -0.39264
O      7.930787    -1.683493    26.388230     0.04167    -0.95722     0.32774
C      7.964335    -3.067120    26.925832     1.65261    -0.44095    -1.06963
C      6.563039    -3.541661    27.041395    -0.31044     0.72509    -1.95002
C      5.870923    -2.265176    27.491271    -1.55239     0.65913    -0.72455
C      6.912298    -1.131724    27.228494    -0.31197    -0.68171     1.38900
H      8.443089    -3.115886    27.912198     0.22483     0.52574    -0.00775
H      8.596349    -3.654157    26.225006    -0.40959     0.11313     0.19180
H      6.553207    -4.372546    27.706088    -0.43074    -0.82555     0.83155
H      6.183419    -3.869827    26.019831     0.21101     0.13071     0.97332
H      5.599235    -2.341758    28.544910    -0.01752     0.34223     0.20138
H      4.921961    -2.060146    26.895626     0.81501    -0.22644     0.55831
H      7.397025    -0.995252    28.223514    -0.26293     0.68822    -0.37672
H      6.510077    -0.220629    26.760093    -0.16885    -0.13913    -0.03672
O      2.568791    11.898829    36.445545     0.74911    -0.75913    -2.12137
C      3.020739    12.929599    35.480218     1.60915     1.02569     3.67016
C      4.392890    12.450953    34.960940     0.35881     0.18599    -0.68468
C      4.227065    10.886085    34.982549     1.16369     0.37200     0.80676
C      2.828357    10.718449    35.550254    -0.28492     1.30720    -0.41873
H      3.006161    13.920227    36.067204     0.20785    -1.26397    -0.88574
H      2.366643    12.996221    34.678950    -1.71101     0.15853    -1.79337
H      5.257175    12.725470    35.632733    -0.90646     0.04040    -0.50944
H      4.932129    15.008922    34.338630    -0.20091    -0.16891    -0.37668
H      4.991306    10.430568    35.649885    -0.34979     0.28697    -0.07196
H      4.433496    10.429862    34.005720    -0.49686    -0.00162    -0.00732
H      2.677885     9.782736    36.018247    -0.33967    -0.99410     1.13819
H      2.124119    10.804585    34.720345    -0.36713    -0.12766    -0.16845
O      4.859207     7.438791    24.802277    -0.49295    -0.16662    -0.94036
C      6.652307    10.071399    27.167443     0.04571     0.43156    -0.63476
C      6.320127     8.758657    27.854544     0.05052    -0.17162     0.88375
C      6.004436     7.539542    26.953652     0.45443     1.61065     0.22107
C      4.850184     8.025959    26.117865    -1.39735    -1.02828     0.39085
H      5.774259    10.513188    26.690096    -0.09121     0.19351     0.14772
H      5.418324     8.858296    28.543820     0.89586     0.16865    -0.42527
H      3.352097    11.719302    20.478589     0.53161    -0.41231    -0.37981
H      7.184339     8.579873    28.508313    -0.32509    -0.62538     0.21364
H      5.864576     6.631942    27.508030    -0.72373    -0.57935     0.54744
H      6.888541     7.290213    26.374102     0.23941     0.26396    -0.73075
H      4.798028     9.138325    26.117654     0.38594    -0.48052    -0.50218
H      3.851409     7.795953    26.598993     1.19255    -0.13081    -0.13236
O      6.801795    13.304257    28.833165    -0.45177     0.30480     0.00403
C      6.186945    13.983323    27.652193    -2.16983    -1.09214     2.20768
C      5.197958    15.059317    28.314802    -0.83444    -0.55073    -1.02095
C      5.528398    15.122623    29.787417     0.90995    -1.12810     0.40546
C      6.022090    13.684691    30.055616     1.36094     0.86089    -0.48461
H      5.561903    13.188293    27.092275     1.20260     0.75195     0.46552
H      7.002682    14.390355    27.097954     0.48802     0.41473    -0.83963
H      4.086255    14.783189    28.247711     1.00152    -0.25172     0.14754
H      5.257217    15.981790    27.735649     0.21074     0.51439     0.27153
H      4.749720    15.364839    30.533153    -0.14743     0.14808    -0.58636
H      6.379273    15.781810    29.893708     0.36341     0.46339     0.36779
H      5.264504    12.964795    30.224604    -1.08317    -0.68081     0.02397
H      6.737961    13.598461    30.870724     0.20211     0.10512     0.28025
O      9.524772    11.579797    28.230125     0.23399    -0.29045    -0.29863
C      9.844175    12.787154    27.454587     0.83241    -0.27386    -0.54367
C     10.069943    13.868863    28.470611    -0.25613     0.54727     1.21926
C     10.116454    13.114481    29.894681     0.19913     0.53661    -1.90177
C     10.339392    11.661652    29.446460    -0.22532    -0.12031     1.62446
H      9.024208    13.079394    26.784464    -0.34239    -0.60987     0.06016
H     10.736559    12.598467    26.773250    -0.59669    -0.09616     0.85996
H      9.225496    14.569235    28.396847     0.05706     0.03051     0.39843
H     10.965791    14.458683    28.246909     0.06857    -0.13530     0.16955
H      9.202744    13.295699    30.456757    -0.37191    -0.31230     0.00731
H     10.918238    13.534080    30.463600     0.81039     0.13537     0.63552
H      9.961277    10.916337    30.200286    -0.19650     0.44178    -0.73580
H     11.420165    11.389290    29.355506    -0.64600     0.33306    -0.76906
O      8.811212     5.719240    27.494033     0.62963     0.46645    -1.71174
C      8.226912     5.248656    28.677379     1.18532    -2.49473     0.46943
C      8.641937     6.199353    29.775819     0.24920    -1.05872     0.46559
C      9.825268     7.034329    29.260369    -1.19816     1.42590    -0.97448
C      9.514136     6.969049    27.726754    -0.33391     0.75937    -0.33505
H      8.626239     4.196429    28.811789     0.21510     0.81290     0.17172
H      7.165156     4.979169    28.598144    -0.29734     0.94912    -0.21364
H      8.755003     5.598222    30.704756     0.08267     0.81278    -0.15442
H      7.802986     6.841976    29.784751    -1.01465     1.23325     1.02043
H     10.829999     6.722034    29.472548     0.54322    -0.55461     0.33230
H      9.715689     8.119311    29.602791     0.19152    -1.23573    -0.24745
H     10.347439     7.073171    26.997049     0.04792    -0.70901     0.57320
H      8.864546     7.814067    27.392204    -0.05220    -0.27403     0.48929
Al     8.563259     0.909948    29.715655     2.17919    -2.16023     4.69713
Cl    10.324984     0.342913    28.531092    -0.35932     0.07192     0.09606
Cl     6.992646     2.262766    29.107642    -2.02961     0.98115     2.73053
C      9.403890     1.661726    31.556252    -0.04135     0.45699    -0.48277
C     10.389702     1.172588    32.365207     0.43327    -0.68032    -0.65699
C     11.159608     1.866483    33.478281    -0.23034     0.00594     1.33648
C     11.193801     3.396825    33.355414    -1.68616     0.52435    -0.74661
C      9.849080     3.864213    32.675670     0.94873     0.43408     0.63999
C      9.076440     3.020730    31.918611    -1.11272     2.95605     0.30729
H     10.820540     0.212682    32.130829     0.03161    -0.59865    -0.15518
H     12.199242     1.572757    33.448973     0.57189    -0.61416    -0.60671
H     12.037490     3.727107    32.718772    -0.06200    -0.04608     0.06458
H      9.597013     4.950646    32.810049    -0.05989    -1.09426    -0.09715
H      8.142944     3.567356    31.555170     0.94738    -1.04603     0.12079
C      7.853729    -0.925673    30.386167    -1.41843     0.02495     0.83260
C      6.588679    -1.131954    31.055509    -0.72497     1.78103    -1.10391
C      5.993027    -2.381673    31.293831     0.55997     0.04097     0.00950
C      6.771643    -3.522002    31.070903    -0.00087     0.75733    -0.26912
C      8.083324    -3.364313    30.661764     0.47387    -0.58661    -0.26637
C      8.596446    -2.110321    30.322973     1.32622     0.09491     0.18247
H      5.966423    -0.208519    31.233436     0.49136    -0.95165    -0.01803
H      4.956902    -2.492941    31.601365    -0.02089     0.24313     0.23895
H      6.407067    -4.513750    31.159471    -0.65278    -0.86209     0.35576
H      8.675352    -4.282502    30.536921     0.12897     0.44694     0.08902
H      9.673477    -2.024915    30.138800    -0.14438    -0.18751    -0.56222
172
Lattice="12.836 0.0 0.0 6.418 11.116 0.0 0.0 0.0 55.0" Properties=species:S:1:pos:R:3:forces:R:3 energy=-124890.472384 charge=0 config_type=react_bare_steerstrip_t2 pbc="T T T"
Mg     0.000000     1.852717    16.000000     0.00000     0.00000     0.00000
Mg     3.209000     1.852717    16.000000     0.00000     0.00000     0.00000
Mg     6.418000     1.852717    16.000000     0.00000     0.00000     0.00000
Mg     9.627000     1.852717    16.000000     0.00000     0.00000     0.00000
Mg     1.604500     4.631793    16.000000     0.00000     0.00000     0.00000
Mg     4.813500     4.631793    16.000000     0.00000     0.00000     0.00000
Mg     8.022500     4.631793    16.000000     0.00000     0.00000     0.00000
Mg    11.231500     4.631793    16.000000     0.00000     0.00000     0.00000
Mg     3.209000     7.410868    16.000000     0.00000     0.00000     0.00000
Mg     6.418000     7.410868    16.000000     0.00000     0.00000     0.00000
Mg     9.627000     7.410868    16.000000     0.00000     0.00000     0.00000
Mg    12.836000     7.410868    16.000000     0.00000     0.00000     0.00000
Mg     4.813500    10.189944    16.000000     0.00000     0.00000     0.00000
Mg     8.022500    10.189944    16.000000     0.00000     0.00000     0.00000
Mg    11.231500    10.189944    16.000000     0.00000     0.00000     0.00000
Mg    14.440500    10.189944    16.000000     0.00000     0.00000     0.00000
Mg     0.000000     0.000000    18.605500     0.00000     0.00000     0.00000
Mg     3.209000     0.000000    18.605500     0.00000     0.00000     0.00000
Mg     6.418000     0.000000    18.605500     0.00000     0.00000     0.00000
Mg     9.627000     0.000000    18.605500     0.00000     0.00000     0.00000
Mg     1.604500     2.779076    18.605500     0.00000     0.00000     0.00000
Mg     4.813500     2.779076    18.605500     0.00000     0.00000     0.00000
Mg     8.022500     2.779076    18.605500     0.00000     0.00000     0.00000
Mg    11.231500     2.779076    18.605500     0.00000     0.00000     0.00000
Mg     3.209000     5.558151    18.605500     0.00000     0.00000     0.00000
Mg     6.418000     5.558151    18.605500     0.00000     0.00000     0.00000
Mg     9.627000     5.558151    18.605500     0.00000     0.00000     0.00000
Mg    12.836000     5.558151    18.605500     0.00000     0.00000     0.00000
Mg     4.813500     8.337227    18.605500     0.00000     0.00000     0.00000
Mg     8.022500     8.337227    18.605500     0.00000     0.00000     0.00000
Mg    11.231500     8.337227    18.605500     0.00000     0.00000     0.00000
Mg    14.440500     8.337227    18.605500     0.00000     0.00000     0.00000
Mg    -1.268642     1.129490    21.132521     0.00000     0.00000     0.00000
Mg     1.812086     0.184340    22.453001     0.00000     0.00000     0.00000
Mg     4.768293     0.222329    21.454855     0.00000     0.00000     0.00000
Mg     8.127708     1.079771    20.927070     0.00000     0.00000     0.00000
Mg    -0.004192     3.722072    21.866593     0.00000     0.00000     0.00000
Mg     3.069203     2.928456    21.811766     0.00000     0.00000     0.00000
Mg     6.470937     1.424070    23.691466     0.00000     0.00000     0.00000
Mg     5.994756     3.608966    21.463847     0.00000     0.00000     0.00000
Mg     1.511070     5.990878    21.052078     0.00000     0.00000     0.00000
Mg     4.424343     6.904198    21.296591     0.00000     0.00000     0.00000
Mg     9.207287     4.491707    21.362249     0.00000     0.00000     0.00000
Mg    11.251831     6.718295    21.168570     0.00000     0.00000     0.00000
Mg     3.169270     9.575071    21.075880     0.00000     0.00000     0.00000
Mg     6.147494     9.593652    21.170976     0.00000     0.00000     0.00000
Mg     9.356687     8.645295    21.379118     0.00000     0.00000     0.00000
Mg    13.144048     9.334116    21.784425     0.00000     0.00000     0.00000
Mg    -1.475221    -0.969203    23.741698     0.00000     0.00000     0.00000
Mg     1.440890    -0.769775    25.355541     0.00000     0.00000     0.00000
Mg     4.733303    -0.808835    24.311043     0.00000     0.00000     0.00000
Mg     8.245205    -0.949322    24.256053     0.00000     0.00000     0.00000
Mg    -0.026289     1.838477    24.412505     0.00000     0.00000     0.00000
Mg     3.762489     1.960333    24.309645     0.00000     0.00000     0.00000
Mg     7.883451     1.579870    27.155340     0.00000     0.00000     0.00000
Mg     9.267190     2.057269    23.331769     0.00000     0.00000     0.00000
Mg     2.019725     4.609822    23.844576     0.00000     0.00000     0.00000
Mg     4.904661     5.304760    24.252630     0.00000     0.00000     0.00000
Mg     7.890130     4.817239    24.392765     0.00000     0.00000     0.00000
Mg    10.948896     5.310530    23.900178     0.00000     0.00000     0.00000
Mg     2.980401     7.423648    23.824864     0.00000     0.00000     0.00000
Mg     6.530706     7.526251    22.995732     0.00000     0.00000     0.00000
Mg     9.684846     7.752810    24.249288     0.00000     0.00000     0.00000
Mg    12.944338     7.283836    23.589666     0.00000     0.00000     0.00000
Mg     7.453525    11.213901    28.739132    -2.45522    -0.79335    -1.58398
Mg    23.148397     3.324226    26.239927     1.58119     0.77357     0.21872
Cl     7.135230    10.025015    30.856157     0.39828     0.77274    -0.44668
Cl     3.761595    11.659203    25.401987     0.15301    -0.30263    -0.10009
Cl    -6.867181     4.092809    26.260177     0.05128     0.17194    -0.45136
O      7.931066    -1.685407    26.387974     0.07573    -1.01714     0.25235
C      7.958183    -3.067946    26.925911     1.91497    -0.60460    -1.00590
C      6.563928    -3.541155    27.032899    -0.61234     0.45933    -1.84581
C      5.868021    -2.270328    27.488173    -1.79796     0.88475    -0.87896
C      6.909751    -1.134605    27.227003    -0.13672    -0.74456     1.58924
H      8.448794    -3.123713    27.910773     0.13164     0.54735    -0.11265
H      8.567874    -3.680534    26.224913    -0.28824     0.25429     0.17500
H      6.547115    -4.384898    27.694156    -0.42097    -0.60128     0.61472
H      6.194772    -3.865020    25.991699     0.23119     0.21214     1.26593
H      5.607239    -2.316497    28.546002    -0.05719     0.17350     0.18917
H      4.901547    -2.065601    26.892571     1.12490    -0.25560     0.72078
H      7.406345    -1.000215    28.226903    -0.43200     0.65947    -0.57340
H      6.518815    -0.222313    26.759308    -0.26859    -0.07305    -0.04883
O      2.573840    11.894024    36.449405     0.74304    -0.65026    -2.13072
C      3.024153    12.939443    35.486327     2.18074     0.14690     3.78984
C      4.393545    12.451162    34.961560     0.48670     0.17683    -0.51143
C      4.220382    10.884476    34.974691     1.40726     0.30650     1.20467
C      2.824536    10.714124    35.548942     0.23896     1.39555     0.05109
H      3.027581    13.911089    36.054626     0.10818    -0.75050    -0.51164
H      2.387190    12.989303    34.691366    -2.24914     0.24176    -2.36007
H      5.256555    12.723323    35.652698    -1.03821    -0.04471    -0.75663
H      4.936654    15.000577    34.331073    -0.20303    -0.07303    -0.19425
H      4.981725    10.443088    35.667080    -0.46165     0.30126    -0.27810
H      4.439410    10.411908    34.007995    -0.49800     0.05345     0.00433
H      2.673551     9.780437    36.017806    -0.30431    -1.03830     1.18121
H      2.138399    10.790723    34.731855    -0.93908     0.00485    -0.72279
O      4.855371     7.442084    24.796168    -0.41286    -0.20836    -0.81194
C      6.653010    10.067191    27.173230    -0.07700     0.63540    -0.87821
C      6.316847     8.761732    27.860666     0.53833    -0.40681     1.25332
C      6.010582     7.543229    26.961071     0.12330     2.16735    -0.35941
C      4.852149     8.026134    26.118702    -1.84736    -2.11725     0.69370
H      5.790619    10.518448    26.653038     0.08630    -0.03365     0.39449
H      5.434780     8.874122    28.578103     0.85539     0.05360    -0.60952
H      3.353561    11.701928    20.468401     0.53111    -0.39846    -0.34809
H      7.192619     8.548203    28.519707    -0.68396    -0.31832    -0.13245
H      5.850632     6.651186    27.498185    -0.76729    -1.20117     0.96105
H      6.876202     7.281349    26.363073     0.38795     0.31462    -0.63238
H      4.787171     9.106826    26.109274     0.33257     0.46309    -0.43377
H      3.842177     7.771179    26.627873     1.68876     0.06962    -0.51121
O      6.799323    13.304252    28.826958    -0.46326     0.37375     0.11747
C      6.187941    13.980971    27.647302    -2.42519    -1.12222     2.30835
C      5.198579    15.068272    28.311597    -1.13018    -1.05454    -0.68389
C      5.526501    15.125787    29.796453     1.07853    -1.07063    -0.08385
C      6.013719    13.686619    30.050488     2.41654     1.65194    -0.44372
H      5.565553    13.163463    27.093908     1.28243     1.04687     0.49180
H      6.995442    14.411124    27.107550     0.64338     0.37865    -0.99646
H      4.074928    14.775359    28.239892     1.31278    -0.07432     0.23224
H      5.251994    15.992179    27.752424     0.23276     0.72016     0.04370
H      4.747132    15.390908    30.527891    -0.19110     0.07544    -0.46227
H      6.394707    15.770768    29.905238     0.18646     0.39851     0.30829
H      5.285634    12.978235    30.207861    -2.05546    -1.57657     0.24795
H      6.734656    13.608094    30.867659     0.10683     0.06304     0.16950
O      9.522235    11.579151    28.225453     0.28250    -0.23231    -0.25430
C      9.846901    12.787344    27.454420     0.98038    -0.38639    -0.94643
C     10.068245    13.868801    28.461609    -0.11261     0.77011     1.43356
C     10.114994    13.117335    29.889174    -0.30937     0.19130    -2.02303
C     10.334535    11.662169    29.453095     0.29499    -0.16635     1.06629
H      9.028710    13.080002    26.781167    -0.35345    -0.61896     0.07728
H     10.746324    12.605648    26.753701    -0.83650    -0.09505     1.13565
H      9.232324    14.580562    28.384396     0.01019    -0.05386     0.41299
H     10.965081    14.467436    28.247636     0.02050    -0.26804     0.16692
H      9.200951    13.278720    30.459775    -0.35646    -0.22527    -0.06904
H     10.904925    13.520916    30.459925     1.22553     0.39235     0.88830
H      9.977955    10.905192    30.190769    -0.42336     0.36311    -0.50632
H     11.421074    11.372940    29.345761    -0.89639     0.53639    -0.69307
O      8.813161     5.717442    27.492866     0.66245     0.55052    -1.73698
C      8.240496     5.251685    28.677531     0.77418    -2.44376     0.70838
C      8.634219     6.200905    29.782664     0.75298    -1.13627     0.26787
C      9.829401     7.024827    29.266234    -2.76248     2.10208    -1.40478
C      9.506614     6.973651    27.725600    -0.01407     0.42834    -0.35744
H      8.624849     4.200616    28.825435     0.35980     0.72058     0.14290
H      7.183256     4.975903    28.615376    -0.45635     0.92611    -0.31898
H      8.772931     5.580342    30.695901    -0.03643     0.89153    -0.10372
H      7.820968     6.869930    29.802188    -1.19728     1.12966     1.02469
H     10.790108     6.707488    29.474083     2.11501    -1.04401     0.60247
H      9.723169     8.109319    29.617311     0.22327    -1.26379    -0.29474
H     10.311541     7.087288    26.964666     0.29195    -0.79678     0.70402
H      8.877159     7.809779    27.371430    -0.46489     0.01573     0.61744
Al     8.571763     0.898987    29.717582     1.44224    -1.45032     4.34762
Cl    10.327016     0.344779    28.531513    -0.28918     0.03832     0.01751
Cl     6.946602     2.299442    29.186849    -0.55144    -0.09556     0.73310
C      9.410678     1.657245    31.557307    -0.12703     0.58311    -0.52430
C     10.391930     1.169434    32.367664     0.56848    -0.96264    -0.61313
C     11.159100     1.861408    33.480624    -0.37270     0.12331     1.29703
C     11.193843     3.392026    33.353960    -1.53738     0.50190    -0.94488
C      9.851746     3.872369    32.672375     1.06599    -1.05488     0.29577
C      9.072259     3.022716    31.915650    -0.50220     2.61998     0.62402
H     10.839670     0.202176    32.149190    -0.18100    -0.29204    -0.18240
H     12.186708     1.546370    33.428014     0.75384    -0.53708    -0.50436
H     12.044977     3.721592    32.722414    -0.12815    -0.07859     0.07717
H      9.614311     4.922613    32.792568    -0.34980     0.12040     0.09445
H      8.139569     3.543626    31.566762     0.64676    -0.79229    -0.04322
C      7.848190    -0.919331    30.386987    -1.14633    -0.34530     0.76807
C      6.588005    -1.133276    31.054682    -0.60583     2.33618    -1.19461
C      6.002593    -2.377110    31.288572     0.06871    -0.02421     0.23707
C      6.770210    -3.517308    31.075040     0.12297     0.24171    -0.38835
C      8.082501    -3.364021    30.660535     0.56562    -0.70271    -0.15974
C      8.592470    -2.113187    30.327258     1.56064     0.52549     0.15364
H      5.965718    -0.203130    31.232617     0.53817    -1.09585    -0.02783
H      4.965942    -2.467003    31.604882     0.01074     0.13743     0.21704
H      6.402214    -4.513839    31.165602    -0.58674    -0.64023     0.34993
H      8.702781    -4.269340    30.551188    -0.06542     0.45799     0.09993
H      9.682478    -2.022597    30.170258    -0.41114    -0.21113    -0.57537
172
Lattice="12.836 0.0 0.0 6.418 11.116 0.0 0.0 0.0 55.0" Properties=species:S:1:pos:R:3:forces:R:3 energy=-124890.621963 charge=0 config_type=react_bare_steerstrip_t4 pbc="T T T"
Mg     0.000000     1.852717    16.000000     0.00000     0.00000     0.00000
Mg     3.209000     1.852717    16.000000     0.00000     0.00000     0.00000
Mg     6.418000     1.852717    16.000000     0.00000     0.00000     0.00000
Mg     9.627000     1.852717    16.000000     0.00000     0.00000     0.00000
Mg     1.604500     4.631793    16.000000     0.00000     0.00000     0.00000
Mg     4.813500     4.631793    16.000000     0.00000     0.00000     0.00000
Mg     8.022500     4.631793    16.000000     0.00000     0.00000     0.00000
Mg    11.231500     4.631793    16.000000     0.00000     0.00000     0.00000
Mg     3.209000     7.410868    16.000000     0.00000     0.00000     0.00000
Mg     6.418000     7.410868    16.000000     0.00000     0.00000     0.00000
Mg     9.627000     7.410868    16.000000     0.00000     0.00000     0.00000
Mg    12.836000     7.410868    16.000000     0.00000     0.00000     0.00000
Mg     4.813500    10.189944    16.000000     0.00000     0.00000     0.00000
Mg     8.022500    10.189944    16.000000     0.00000     0.00000     0.00000
Mg    11.231500    10.189944    16.000000     0.00000     0.00000     0.00000
Mg    14.440500    10.189944    16.000000     0.00000     0.00000     0.00000
Mg     0.000000     0.000000    18.605500     0.00000     0.00000     0.00000
Mg     3.209000     0.000000    18.605500     0.00000     0.00000     0.00000
Mg     6.418000     0.000000    18.605500     0.00000     0.00000     0.00000
Mg     9.627000     0.000000    18.605500     0.00000     0.00000     0.00000
Mg     1.604500     2.779076    18.605500     0.00000     0.00000     0.00000
Mg     4.813500     2.779076    18.605500     0.00000     0.00000     0.00000
Mg     8.022500     2.779076    18.605500     0.00000     0.00000     0.00000
Mg    11.231500     2.779076    18.605500     0.00000     0.00000     0.00000
Mg     3.209000     5.558151    18.605500     0.00000     0.00000     0.00000
Mg     6.418000     5.558151    18.605500     0.00000     0.00000     0.00000
Mg     9.627000     5.558151    18.605500     0.00000     0.00000     0.00000
Mg    12.836000     5.558151    18.605500     0.00000     0.00000     0.00000
Mg     4.813500     8.337227    18.605500     0.00000     0.00000     0.00000
Mg     8.022500     8.337227    18.605500     0.00000     0.00000     0.00000
Mg    11.231500     8.337227    18.605500     0.00000     0.00000     0.00000
Mg    14.440500     8.337227    18.605500     0.00000     0.00000     0.00000
Mg    -1.265836     1.128150    21.131684     0.00000     0.00000     0.00000