65
Lattice="12.836 0.0 0.0 0.0 11.116 0.0 0.0 0.0 32.0" Properties=species:S:1:pos:R:3:forces:R:3 charge=0 config_type=dep_bare_hollow_h40 dft_level=gamma energy=-110262.690922 pbc="T T T"
Mg       0.00000000       0.00000000       0.00000000       0.00000000       0.00000000       0.00000000
Mg       1.60450000       2.77907600       0.00000000       0.00000000       0.00000000       0.00000000
Mg       3.20900000       0.00000000       0.00000000       0.00000000       0.00000000       0.00000000
Mg       4.81350000       2.77907600       0.00000000       0.00000000       0.00000000       0.00000000
Mg       0.00000000       5.55815100       0.00000000       0.00000000       0.00000000       0.00000000
Mg       1.60450000       8.33722700       0.00000000       0.00000000       0.00000000       0.00000000
Mg       3.20900000       5.55815100       0.00000000       0.00000000       0.00000000       0.00000000
Mg       4.81350000       8.33722700       0.00000000       0.00000000       0.00000000       0.00000000
Mg       6.41800000       0.00000000       0.00000000       0.00000000       0.00000000       0.00000000
Mg       8.02250000       2.77907600       0.00000000       0.00000000       0.00000000       0.00000000
Mg       9.62700000       0.00000000       0.00000000       0.00000000       0.00000000       0.00000000
Mg      11.23150000       2.77907600       0.00000000       0.00000000       0.00000000       0.00000000
Mg       6.41800000       5.55815100       0.00000000       0.00000000       0.00000000       0.00000000
Mg       8.02250000       8.33722700       0.00000000       0.00000000       0.00000000       0.00000000
Mg       9.62700000       5.55815100       0.00000000       0.00000000       0.00000000       0.00000000
Mg      11.23150000       8.33722700       0.00000000       0.00000000       0.00000000       0.00000000
Mg       2.13933300       1.85271700       2.60550000       0.00000000       0.00000000       0.00000000
Mg       3.74383300       4.63179300       2.60550000       0.00000000       0.00000000       0.00000000
Mg       5.34833300       1.85271700       2.60550000       0.00000000       0.00000000       0.00000000
Mg       6.95283300       4.63179300       2.60550000       0.00000000       0.00000000       0.00000000
Mg       2.13933300       7.41086800       2.60550000       0.00000000       0.00000000       0.00000000
Mg       3.74383300      10.18994400       2.60550000       0.00000000       0.00000000       0.00000000
Mg       5.34833300       7.41086800       2.60550000       0.00000000       0.00000000       0.00000000
Mg       6.95283300      10.18994400       2.60550000       0.00000000       0.00000000       0.00000000
Mg       8.55733300       1.85271700       2.60550000       0.00000000       0.00000000       0.00000000
Mg      10.16183300       4.63179300       2.60550000       0.00000000       0.00000000       0.00000000
Mg      11.76633300       1.85271700       2.60550000       0.00000000       0.00000000       0.00000000
Mg       0.53483300       4.63179300       2.60550000       0.00000000       0.00000000       0.00000000
Mg       8.55733300       7.41086800       2.60550000       0.00000000       0.00000000       0.00000000
Mg      10.16183300      10.18994400       2.60550000       0.00000000       0.00000000       0.00000000
Mg      11.76633300       7.41086800       2.60550000       0.00000000       0.00000000       0.00000000
Mg       0.53483300      10.18994400       2.60550000       0.00000000       0.00000000       0.00000000
Mg       0.00000000       0.00000000       5.21100000       0.00000000       0.00000000       0.00000000
Mg       1.60450000       2.77907600       5.21100000       0.00000000       0.00000000       0.00000000
Mg       3.20900000       0.00000000       5.21100000       0.00000000       0.00000000       0.00000000
Mg       4.81350000       2.77907600       5.21100000       0.00000000       0.00000000       0.00000000
Mg       0.00000000       5.55815100       5.21100000       0.00000000       0.00000000       0.00000000
Mg       1.60450000       8.33722700       5.21100000       0.00000000       0.00000000       0.00000000
Mg       3.20900000       5.55815100       5.21100000       0.00000000       0.00000000       0.00000000
Mg       4.81350000       8.33722700       5.21100000       0.00000000       0.00000000       0.00000000
Mg       6.41800000       0.00000000       5.21100000       0.00000000       0.00000000       0.00000000
Mg       8.02250000       2.77907600       5.21100000       0.00000000       0.00000000       0.00000000
Mg       9.62700000       0.00000000       5.21100000       0.00000000       0.00000000       0.00000000
Mg      11.23150000       2.77907600       5.21100000       0.00000000       0.00000000       0.00000000
Mg       6.41800000       5.55815100       5.21100000       0.00000000       0.00000000       0.00000000
Mg       8.02250000       8.33722700       5.21100000       0.00000000       0.00000000       0.00000000
Mg       9.62700000       5.55815100       5.21100000       0.00000000       0.00000000       0.00000000
Mg      11.23150000       8.33722700       5.21100000       0.00000000       0.00000000       0.00000000
Mg       2.13933300       1.85271700       7.81650000       0.00000000       0.00000000       0.00000000
Mg       3.74383300       4.63179300       7.81650000       0.00000000       0.00000000       0.00000000
Mg       5.34833300       1.85271700       7.81650000       0.00000000       0.00000000       0.00000000
Mg       6.95283300       4.63179300       7.81650000       0.00000000       0.00000000       0.00000000
Mg       2.13933300       7.41086800       7.81650000       0.00000000       0.00000000       0.00000000
Mg       3.74383300      10.18994400       7.81650000       0.00000000       0.00000000       0.00000000
Mg       5.34833300       7.41086800       7.81650000       0.00000000       0.00000000       0.00000000
Mg       6.95283300      10.18994400       7.81650000       0.00000000       0.00000000       0.00000000
Mg       8.55733300       1.85271700       7.81650000       0.00000000       0.00000000       0.00000000
Mg      10.16183300       4.63179300       7.81650000       0.00000000       0.00000000       0.00000000
Mg      11.76633300       1.85271700       7.81650000       0.00000000       0.00000000       0.00000000
Mg       0.53483300       4.63179300       7.81650000       0.00000000       0.00000000       0.00000000
Mg       8.55733300       7.41086800       7.81650000       0.00000000       0.00000000       0.00000000
Mg      10.16183300      10.18994400       7.81650000       0.00000000       0.00000000       0.00000000
Mg      11.76633300       7.41086800       7.81650000       0.00000000       0.00000000       0.00000000
Mg       0.53483300      10.18994400       7.81650000       0.00000000       0.00000000       0.00000000
Al       3.74383300       2.77907600      11.81650000      -0.00341400      -0.00714600      -0.89197500
65
Lattice="12.836 0.0 0.0 0.0 11.116 0.0 0.0 0.0 32.0" Properties=species:S:1:pos:R:3:forces:R:3 charge=0 config_type=dep_bare_hollow_h30 dft_level=gamma energy=-110263.614364 pbc="T T T"
Mg       0.00000000       0.00000000       0.00000000       0.00000000       0.00000000       0.00000000
Mg       1.60450000       2.77907600       0.00000000       0.00000000       0.00000000       0.00000000
Mg       3.20900000       0.00000000       0.00000000       0.00000000       0.00000000       0.00000000
Mg       4.81350000       2.77907600       0.00000000       0.00000000       0.00000000       0.00000000
Mg       0.00000000       5.55815100       0.00000000       0.00000000       0.00000000       0.00000000
Mg       1.60450000       8.33722700       0.00000000       0.00000000       0.00000000       0.00000000
Mg       3.20900000       5.55815100       0.00000000       0.00000000       0.00000000       0.00000000
Mg       4.81350000       8.33722700       0.00000000       0.00000000       0.00000000       0.00000000
Mg       6.41800000       0.00000000       0.00000000       0.00000000       0.00000000       0.00000000
Mg       8.02250000       2.77907600       0.00000000       0.00000000       0.00000000       0.00000000
Mg       9.62700000       0.00000000       0.00000000       0.00000000       0.00000000       0.00000000
Mg      11.23150000       2.77907600       0.00000000       0.00000000       0.00000000       0.00000000
Mg       6.41800000       5.55815100       0.00000000       0.00000000       0.00000000       0.00000000
Mg       8.02250000       8.33722700       0.00000000       0.00000000       0.00000000       0.00000000
Mg       9.62700000       5.55815100       0.00000000       0.00000000       0.00000000       0.00000000
Mg      11.23150000       8.33722700       0.00000000       0.00000000       0.00000000       0.00000000
Mg       2.13933300       1.85271700       2.60550000       0.00000000       0.00000000       0.00000000
Mg       3.74383300       4.63179300       2.60550000       0.00000000       0.00000000       0.00000000
Mg       5.34833300       1.85271700       2.60550000       0.00000000       0.00000000       0.00000000
Mg       6.95283300       4.63179300       2.60550000       0.00000000       0.00000000       0.00000000
Mg       2.13933300       7.41086800       2.60550000       0.00000000       0.00000000       0.00000000
Mg       3.74383300      10.18994400       2.60550000       0.00000000       0.00000000       0.00000000
Mg       5.34833300       7.41086800       2.60550000       0.00000000       0.00000000       0.00000000
Mg       6.95283300      10.18994400       2.60550000       0.00000000       0.00000000       0.00000000
Mg       8.55733300       1.85271700       2.60550000       0.00000000       0.00000000       0.00000000
Mg      10.16183300       4.63179300       2.60550000       0.00000000       0.00000000       0.00000000
Mg      11.76633300       1.85271700       2.60550000       0.00000000       0.00000000       0.00000000
Mg       0.53483300       4.63179300       2.60550000       0.00000000       0.00000000       0.00000000
Mg       8.55733300       7.41086800       2.60550000       0.00000000       0.00000000       0.00000000
Mg      10.16183300      10.18994400       2.60550000       0.00000000       0.00000000       0.00000000
Mg      11.76633300       7.41086800       2.60550000       0.00000000       0.00000000       0.00000000
Mg       0.53483300      10.18994400       2.60550000       0.00000000       0.00000000       0.00000000
Mg       0.00000000       0.00000000       5.21100000       0.00000000       0.00000000       0.00000000
Mg       1.60450000       2.77907600       5.21100000       0.00000000       0.00000000       0.00000000
Mg       3.20900000       0.00000000       5.21100000       0.00000000       0.00000000       0.00000000
Mg       4.81350000       2.77907600       5.21100000       0.00000000       0.00000000       0.00000000
Mg       0.00000000       5.55815100       5.21100000       0.00000000       0.00000000       0.00000000
Mg       1.60450000       8.33722700       5.21100000       0.00000000       0.00000000       0.00000000
Mg       3.20900000       5.55815100       5.21100000       0.00000000       0.00000000       0.00000000
Mg       4.81350000       8.33722700       5.21100000       0.00000000       0.00000000       0.00000000
Mg       6.41800000       0.00000000       5.21100000       0.00000000       0.00000000       0.00000000
Mg       8.02250000       2.77907600       5.21100000       0.00000000       0.00000000       0.00000000
Mg       9.62700000       0.00000000       5.21100000       0.00000000       0.00000000       0.00000000
Mg      11.23150000       2.77907600       5.21100000       0.00000000       0.00000000       0.00000000
Mg       6.41800000       5.55815100       5.21100000       0.00000000       0.00000000       0.00000000
Mg       8.02250000       8.33722700       5.21100000       0.00000000       0.00000000       0.00000000
Mg       9.62700000       5.55815100       5.21100000       0.00000000       0.00000000       0.00000000
Mg      11.23150000       8.33722700       5.21100000       0.00000000       0.00000000       0.00000000
Mg       2.13933300       1.85271700       7.81650000       0.00000000       0.00000000       0.00000000
Mg       3.74383300       4.63179300       7.81650000       0.00000000       0.00000000       0.00000000
Mg       5.34833300       1.85271700       7.81650000       0.00000000       0.00000000       0.00000000
Mg       6.95283300       4.63179300       7.81650000       0.00000000       0.00000000       0.00000000
Mg       2.13933300       7.41086800       7.81650000       0.00000000       0.00000000       0.00000000
Mg       3.74383300      10.18994400       7.81650000       0.00000000       0.00000000       0.00000000
Mg       5.34833300       7.41086800       7.81650000       0.00000000       0.00000000       0.00000000
Mg       6.95283300      10.18994400       7.81650000       0.00000000       0.00000000       0.00000000
Mg       8.55733300       1.85271700       7.81650000       0.00000000       0.00000000       0.00000000
Mg      10.16183300       4.63179300       7.81650000       0.00000000       0.00000000       0.00000000
Mg      11.76633300       1.85271700       7.81650000       0.00000000       0.00000000       0.00000000
Mg       0.53483300       4.63179300       7.81650000       0.00000000       0.00000000       0.00000000
Mg       8.55733300       7.41086800       7.81650000       0.00000000       0.00000000       0.00000000
Mg      10.16183300      10.18994400       7.81650000       0.00000000       0.00000000       0.00000000
Mg      11.76633300       7.41086800       7.81650000       0.00000000       0.00000000       0.00000000
Mg       0.53483300      10.18994400       7.81650000       0.00000000       0.00000000       0.00000000
Al       3.74383300       2.77907600      10.81650000      -0.00352100      -0.02753200      -0.70799000
65
Lattice="12.836 0.0 0.0 0.0 11.116 0.0 0.0 0.0 32.0" Properties=species:S:1:pos:R:3:forces:R:3 charge=0 config_type=dep_bare_hollow_h26 dft_level=kpoint_mp331 energy=-110262.650468 pbc="T T T"
Mg       0.00000000       0.00000000       0.00000000       0.00000000       0.00000000       0.00000000
Mg       1.60450000       2.77907600       0.00000000       0.00000000       0.00000000       0.00000000
Mg       3.20900000       0.00000000       0.00000000       0.00000000       0.00000000       0.00000000
Mg       4.81350000       2.77907600       0.00000000       0.00000000       0.00000000       0.00000000
Mg       0.00000000       5.55815100       0.00000000       0.00000000       0.00000000       0.00000000
Mg       1.60450000       8.33722700       0.00000000       0.00000000       0.00000000       0.00000000
Mg       3.20900000       5.55815100       0.00000000       0.00000000       0.00000000       0.00000000
Mg       4.81350000       8.33722700       0.00000000       0.00000000       0.00000000       0.00000000
Mg       6.41800000       0.00000000       0.00000000       0.00000000       0.00000000       0.00000000
Mg       8.02250000       2.77907600       0.00000000       0.00000000       0.00000000       0.00000000
Mg       9.62700000       0.00000000       0.00000000       0.00000000       0.00000000       0.00000000
Mg      11.23150000       2.77907600       0.00000000       0.00000000       0.00000000       0.00000000
Mg       6.41800000       5.55815100       0.00000000       0.00000000       0.00000000       0.00000000
Mg       8.02250000       8.33722700       0.00000000       0.00000000       0.00000000       0.00000000
Mg       9.62700000       5.55815100       0.00000000       0.00000000       0.00000000       0.00000000
Mg      11.23150000       8.33722700       0.00000000       0.00000000       0.00000000       0.00000000
Mg       2.13933300       1.85271700       2.60550000       0.00000000       0.00000000       0.00000000
Mg       3.74383300       4.63179300       2.60550000       0.00000000       0.00000000       0.00000000
Mg       5.34833300       1.85271700       2.60550000       0.00000000       0.00000000       0.00000000
Mg       6.95283300       4.63179300       2.60550000       0.00000000       0.00000000       0.00000000
Mg       2.13933300       7.41086800       2.60550000       0.00000000       0.00000000       0.00000000
Mg       3.74383300      10.18994400       2.60550000       0.00000000       0.00000000       0.00000000
Mg       5.34833300       7.41086800       2.60550000       0.00000000       0.00000000       0.00000000
Mg       6.95283300      10.18994400       2.60550000       0.00000000       0.00000000       0.00000000
Mg       8.55733300       1.85271700       2.60550000       0.00000000       0.00000000       0.00000000
Mg      10.16183300       4.63179300       2.60550000       0.00000000       0.00000000       0.00000000
Mg      11.76633300       1.85271700       2.60550000       0.00000000       0.00000000       0.00000000
Mg       0.53483300       4.63179300       2.60550000       0.00000000       0.00000000       0.00000000
Mg       8.55733300       7.41086800       2.60550000       0.00000000       0.00000000       0.00000000
Mg      10.16183300      10.18994400       2.60550000       0.00000000       0.00000000       0.00000000
Mg      11.76633300       7.41086800       2.60550000       0.00000000       0.00000000       0.00000000
Mg       0.53483300      10.18994400       2.60550000       0.00000000       0.00000000       0.00000000
Mg       0.00000000       0.00000000       5.21100000       0.00000000       0.00000000       0.00000000
Mg       1.60450000       2.77907600       5.21100000       0.00000000       0.00000000       0.00000000
Mg       3.20900000       0.00000000       5.21100000       0.00000000       0.00000000       0.00000000
Mg       4.81350000       2.77907600       5.21100000       0.00000000       0.00000000       0.00000000
Mg       0.00000000       5.55815100       5.21100000       0.00000000       0.00000000       0.00000000
Mg       1.60450000       8.33722700       5.21100000       0.00000000       0.00000000       0.00000000
Mg       3.20900000       5.55815100       5.21100000       0.00000000       0.00000000       0.00000000
Mg       4.81350000       8.33722700       5.21100000       0.00000000       0.00000000       0.00000000
Mg       6.41800000       0.00000000       5.21100000       0.00000000       0.00000000       0.00000000
Mg       8.02250000       2.77907600       5.21100000       0.00000000       0.00000000       0.00000000
Mg       9.62700000       0.00000000       5.21100000       0.00000000       0.00000000       0.00000000
Mg      11.23150000       2.77907600       5.21100000       0.00000000       0.00000000       0.00000000
Mg       6.41800000       5.55815100       5.21100000       0.00000000       0.00000000       0.00000000
Mg       8.02250000       8.33722700       5.21100000       0.00000000       0.00000000       0.00000000
Mg       9.62700000       5.55815100       5.21100000       0.00000000       0.00000000       0.00000000
Mg      11.23150000       8.33722700       5.21100000       0.00000000       0.00000000       0.00000000
Mg       2.13933300       1.85271700       7.81650000       0.00000000       0.00000000       0.00000000
Mg       3.74383300       4.63179300       7.81650000       0.00000000       0.00000000       0.00000000
Mg       5.34833300       1.85271700       7.81650000       0.00000000       0.00000000       0.00000000
Mg       6.95283300       4.63179300       7.81650000       0.00000000       0.00000000       0.00000000
Mg       2.13933300       7.41086800       7.81650000       0.00000000       0.00000000       0.00000000
Mg       3.74383300      10.18994400       7.81650000       0.00000000       0.00000000       0.00000000
Mg       5.34833300       7.41086800       7.81650000       0.00000000       0.00000000       0.00000000
Mg       6.95283300      10.18994400       7.81650000       0.00000000       0.00000000       0.00000000
Mg       8.55733300       1.85271700       7.81650000       0.00000000       0.00000000       0.00000000
Mg      10.16183300       4.63179300       7.81650000       0.00000000       0.00000000       0.00000000
Mg      11.76633300       1.85271700       7.81650000       0.00000000       0.00000000       0.00000000
Mg       0.53483300       4.63179300       7.81650000       0.00000000       0.00000000       0.00000000
Mg       8.55733300       7.41086800       7.81650000       0.00000000       0.00000000       0.00000000
Mg      10.16183300      10.18994400       7.81650000       0.00000000       0.00000000       0.00000000
Mg      11.76633300       7.41086800       7.81650000       0.00000000       0.00000000       0.00000000
Mg       0.53483300      10.18994400       7.81650000       0.00000000       0.00000000       0.00000000
Al       3.74383300       2.77907600      10.41650000      -0.00226300      -0.00028300      -0.08706600
65
Lattice="12.836 0.0 0.0 0.0 11.116 0.0 0.0 0.0 32.0" Properties=species:S:1:pos:R:3:forces:R:3 charge=0 config_type=dep_bare_hollow_h23 dft_level=kpoint_mp331 energy=-110262.675633 pbc="T T T"
Mg       0.00000000       0.00000000       0.00000000       0.00000000       0.00000000       0.00000000
Mg       1.60450000       2.77907600       0.00000000       0.00000000       0.00000000       0.00000000
Mg       3.20900000       0.00000000       0.00000000       0.00000000       0.00000000       0.00000000
Mg       4.81350000       2.77907600       0.00000000       0.00000000       0.00000000       0.00000000
Mg       0.00000000       5.55815100       0.00000000       0.00000000       0.00000000       0.00000000
Mg       1.60450000       8.33722700       0.00000000       0.00000000       0.00000000       0.00000000
Mg       3.20900000       5.55815100       0.00000000       0.00000000       0.00000000       0.00000000
Mg       4.81350000       8.33722700       0.00000000       0.00000000       0.00000000       0.00000000
Mg       6.41800000       0.00000000       0.00000000       0.00000000       0.00000000       0.00000000
Mg       8.02250000       2.77907600       0.00000000       0.00000000       0.00000000       0.00000000
Mg       9.62700000       0.00000000       0.00000000       0.00000000       0.00000000       0.00000000
Mg      11.23150000       2.77907600       0.00000000       0.00000000       0.00000000       0.00000000
Mg       6.41800000       5.55815100       0.00000000       0.00000000       0.00000000       0.00000000
Mg       8.02250000       8.33722700       0.00000000       0.00000000       0.00000000       0.00000000
Mg       9.62700000       5.55815100       0.00000000       0.00000000       0.00000000       0.00000000
Mg      11.23150000       8.33722700       0.00000000       0.00000000       0.00000000       0.00000000
Mg       2.13933300       1.85271700       2.60550000       0.00000000       0.00000000       0.00000000
Mg       3.74383300       4.63179300       2.60550000       0.00000000       0.00000000       0.00000000
Mg       5.34833300       1.85271700       2.60550000       0.00000000       0.00000000       0.00000000
Mg       6.95283300       4.63179300       2.60550000       0.00000000       0.00000000       0.00000000
Mg       2.13933300       7.41086800       2.60550000       0.00000000       0.00000000       0.00000000
Mg       3.74383300      10.18994400       2.60550000       0.00000000       0.00000000       0.00000000
Mg       5.34833300       7.41086800       2.60550000       0.00000000       0.00000000       0.00000000
Mg       6.95283300      10.18994400       2.60550000       0.00000000       0.00000000       0.00000000
Mg       8.55733300       1.85271700       2.60550000       0.00000000       0.00000000       0.00000000
Mg      10.16183300       4.63179300       2.60550000       0.00000000       0.00000000       0.00000000
Mg      11.76633300       1.85271700       2.60550000       0.00000000       0.00000000       0.00000000
Mg       0.53483300       4.63179300       2.60550000       0.00000000       0.00000000       0.00000000
Mg       8.55733300       7.41086800       2.60550000       0.00000000       0.00000000       0.00000000
Mg      10.16183300      10.18994400       2.60550000       0.00000000       0.00000000       0.00000000
Mg      11.76633300       7.41086800       2.60550000       0.00000000       0.00000000       0.00000000
Mg       0.53483300      10.18994400       2.60550000       0.00000000       0.00000000       0.00000000
Mg       0.00000000       0.00000000       5.21100000       0.00000000       0.00000000       0.00000000
Mg       1.60450000       2.77907600       5.21100000       0.00000000       0.00000000       0.00000000
Mg       3.20900000       0.00000000       5.21100000       0.00000000       0.00000000       0.00000000
Mg       4.81350000       2.77907600       5.21100000       0.00000000       0.00000000       0.00000000
Mg       0.00000000       5.55815100       5.21100000       0.00000000       0.00000000       0.00000000
Mg       1.60450000       8.33722700       5.21100000       0.00000000       0.00000000       0.00000000
Mg       3.20900000       5.55815100       5.21100000       0.00000000       0.00000000       0.00000000
Mg       4.81350000       8.33722700       5.21100000       0.00000000       0.00000000       0.00000000
Mg       6.41800000       0.00000000       5.21100000       0.00000000       0.00000000       0.00000000
Mg       8.02250000       2.77907600       5.21100000       0.00000000       0.00000000       0.00000000
Mg       9.62700000       0.00000000       5.21100000       0.00000000       0.00000000       0.00000000
Mg      11.23150000       2.77907600       5.21100000       0.00000000       0.00000000       0.00000000
Mg       6.41800000       5.55815100       5.21100000       0.00000000       0.00000000       0.00000000
Mg       8.02250000       8.33722700       5.21100000       0.00000000       0.00000000       0.00000000
Mg       9.62700000       5.55815100       5.21100000       0.00000000       0.00000000       0.00000000
Mg      11.23150000       8.33722700       5.21100000       0.00000000       0.00000000       0.00000000
Mg       2.13933300       1.85271700       7.81650000       0.00000000       0.00000000       0.00000000
Mg       3.74383300       4.63179300       7.81650000       0.00000000       0.00000000       0.00000000
Mg       5.34833300       1.85271700       7.81650000       0.00000000       0.00000000       0.00000000
Mg       6.95283300       4.63179300       7.81650000       0.00000000       0.00000000       0.00000000
Mg       2.13933300       7.41086800       7.81650000       0.00000000       0.00000000       0.00000000
Mg       3.74383300      10.18994400       7.81650000       0.00000000       0.00000000       0.00000000
Mg       5.34833300       7.41086800       7.81650000       0.00000000       0.00000000       0.00000000
Mg       6.95283300      10.18994400       7.81650000       0.00000000       0.00000000       0.00000000
Mg       8.55733300       1.85271700       7.81650000       0.00000000       0.00000000       0.00000000
Mg      10.16183300       4.63179300       7.81650000       0.00000000       0.00000000       0.00000000
Mg      11.76633300       1.85271700       7.81650000       0.00000000       0.00000000       0.00000000
Mg       0.53483300       4.63179300       7.81650000       0.00000000       0.00000000       0.00000000
Mg       8.55733300       7.41086800       7.81650000       0.00000000       0.00000000       0.00000000
Mg      10.16183300      10.18994400       7.81650000       0.00000000       0.00000000       0.00000000
Mg      11.76633300       7.41086800       7.81650000       0.00000000       0.00000000       0.00000000
Mg       0.53483300      10.18994400       7.81650000       0.00000000       0.00000000       0.00000000
Al       3.74383300       2.77907600      10.11650000       0.00272300       0.00577500       0.23664800
65
Lattice="12.836 0.0 0.0 0.0 11.116 0.0 0.0 0.0 32.0" Properties=species:S:1:pos:R:3:forces:R:3 charge=0 config_type=dep_bare_hollow_h20 dft_level=kpoint_mp331 energy=-110262.536149 pbc="T T T"
Mg       0.00000000       0.00000000       0.00000000       0.00000000       0.00000000       0.00000000
Mg       1.60450000       2.77907600       0.00000000       0.00000000       0.00000000       0.00000000
Mg       3.20900000       0.00000000       0.00000000       0.00000000       0.00000000       0.00000000
Mg       4.81350000       2.77907600       0.00000000       0.00000000       0.00000000       0.00000000
Mg       0.00000000       5.55815100       0.00000000       0.00000000       0.00000000       0.00000000
Mg       1.60450000       8.33722700       0.00000000       0.00000000       0.00000000       0.00000000
Mg       3.20900000       5.55815100       0.00000000       0.00000000       0.00000000       0.00000000
Mg       4.81350000       8.33722700       0.00000000       0.00000000       0.00000000       0.00000000
Mg       6.41800000       0.00000000       0.00000000       0.00000000       0.00000000       0.00000000
Mg       8.02250000       2.77907600       0.00000000       0.00000000       0.00000000       0.00000000
Mg       9.62700000       0.00000000       0.00000000       0.00000000       0.00000000       0.00000000
Mg      11.23150000       2.77907600       0.00000000       0.00000000       0.00000000       0.00000000
Mg       6.41800000       5.55815100       0.00000000       0.00000000       0.00000000       0.00000000
Mg       8.02250000       8.33722700       0.00000000       0.00000000       0.00000000       0.00000000
Mg       9.62700000       5.55815100       0.00000000       0.00000000       0.00000000       0.00000000
Mg      11.23150000       8.33722700       0.00000000       0.00000000       0.00000000       0.00000000