172
Lattice="12.836 0 0 6.418 11.116 0 0 0 55" Properties=species:S:1:pos:R:3:forces:R:3 energy=-124894.836018 charge=0 pbc="T T T" config_type=t10_react_bare dataset_ver=5fdb48a
Mg 0.0000000000 1.8527170000 16.0000000000 0.000000 0.000000 0.000000
Mg 3.2090000000 1.8527170000 16.0000000000 0.000000 0.000000 0.000000
Mg 6.4180000000 1.8527170000 16.0000000000 0.000000 0.000000 0.000000
Mg 9.6270000000 1.8527170000 16.0000000000 0.000000 0.000000 0.000000
Mg 1.6045000000 4.6317930000 16.0000000000 0.000000 0.000000 0.000000
Mg 4.8135000000 4.6317930000 16.0000000000 0.000000 0.000000 0.000000
Mg 8.0225000000 4.6317930000 16.0000000000 0.000000 0.000000 0.000000
Mg 11.2315000000 4.6317930000 16.0000000000 0.000000 0.000000 0.000000
Mg 3.2090000000 7.4108680000 16.0000000000 0.000000 0.000000 0.000000
Mg 6.4180000000 7.4108680000 16.0000000000 0.000000 0.000000 0.000000
Mg 9.6270000000 7.4108680000 16.0000000000 0.000000 0.000000 0.000000
Mg 12.8360000000 7.4108680000 16.0000000000 0.000000 0.000000 0.000000
Mg 4.8135000000 10.1899440000 16.0000000000 0.000000 0.000000 0.000000
Mg 8.0225000000 10.1899440000 16.0000000000 0.000000 0.000000 0.000000
Mg 11.2315000000 10.1899440000 16.0000000000 0.000000 0.000000 0.000000
Mg 14.4405000000 10.1899440000 16.0000000000 0.000000 0.000000 0.000000
Mg 0.0000000000 0.0000000000 18.6055000000 0.000000 0.000000 0.000000
Mg 3.2090000000 0.0000000000 18.6055000000 0.000000 0.000000 0.000000
Mg 6.4180000000 0.0000000000 18.6055000000 0.000000 0.000000 0.000000
Mg 9.6270000000 0.0000000000 18.6055000000 0.000000 0.000000 0.000000
Mg 1.6045000000 2.7790760000 18.6055000000 0.000000 0.000000 0.000000
Mg 4.8135000000 2.7790760000 18.6055000000 0.000000 0.000000 0.000000
Mg 8.0225000000 2.7790760000 18.6055000000 0.000000 0.000000 0.000000
Mg 11.2315000000 2.7790760000 18.6055000000 0.000000 0.000000 0.000000
Mg 3.2090000000 5.5581510000 18.6055000000 0.000000 0.000000 0.000000
Mg 6.4180000000 5.5581510000 18.6055000000 0.000000 0.000000 0.000000
Mg 9.6270000000 5.5581510000 18.6055000000 0.000000 0.000000 0.000000
Mg 12.8360000000 5.5581510000 18.6055000000 0.000000 0.000000 0.000000
Mg 4.8135000000 8.3372270000 18.6055000000 0.000000 0.000000 0.000000
Mg 8.0225000000 8.3372270000 18.6055000000 0.000000 0.000000 0.000000
Mg 11.2315000000 8.3372270000 18.6055000000 0.000000 0.000000 0.000000
Mg 14.4405000000 8.3372270000 18.6055000000 0.000000 0.000000 0.000000
Mg -1.5902240000 1.5990490000 20.9165670000 0.000000 0.000000 0.000000
Mg 1.1909860000 1.6985950000 22.4912770000 0.000000 0.000000 0.000000
Mg 4.7010720000 0.9788240000 21.6884180000 0.000000 0.000000 0.000000
Mg 8.0353970000 0.7241070000 21.0758980000 0.000000 0.000000 0.000000
Mg -0.2643200000 4.5571070000 21.8798360000 0.000000 0.000000 0.000000
Mg 2.8704350000 3.8207830000 20.9566430000 0.000000 0.000000 0.000000
Mg 7.0882650000 1.7698650000 23.1942280000 0.000000 0.000000 0.000000
Mg 5.9754250000 3.7604290000 21.5549940000 0.000000 0.000000 0.000000
Mg 0.9343470000 6.6547390000 21.1396040000 0.000000 0.000000 0.000000
Mg 3.9476530000 6.3007220000 21.9435770000 0.000000 0.000000 0.000000
Mg 9.4020860000 4.3246490000 21.4545640000 0.000000 0.000000 0.000000
Mg 10.5695210000 6.8520900000 21.0683770000 0.000000 0.000000 0.000000
Mg 2.8489570000 9.0998450000 21.2571840000 0.000000 0.000000 0.000000
Mg 6.2977790000 9.7421480000 21.2656390000 0.000000 0.000000 0.000000
Mg 9.1774570000 10.4514990000 21.7147710000 0.000000 0.000000 0.000000
Mg 12.4895280000 9.1116220000 21.8822150000 0.000000 0.000000 0.000000
Mg -1.3739460000 -2.2566500000 23.7446210000 0.000000 0.000000 0.000000
Mg 7.0893990000 -2.0609680000 30.8331620000 0.000000 0.000000 0.000000
Mg 3.5435590000 -0.1249350000 24.2278360000 0.000000 0.000000 0.000000
Mg 8.5877840000 -3.1475790000 24.1576200000 0.000000 0.000000 0.000000
Mg -0.4547080000 0.3728410000 24.8009440000 0.000000 0.000000 0.000000
Mg 4.1564330000 2.9528220000 23.8341730000 0.000000 0.000000 0.000000
Mg 8.5944980000 8.0375700000 23.1251710000 0.000000 0.000000 0.000000
Mg 9.6799530000 0.6217660000 23.4457890000 0.000000 0.000000 0.000000
Mg 1.3007350000 5.1338460000 24.1827080000 0.000000 0.000000 0.000000
Mg 7.3242680000 4.5945460000 24.2481260000 0.000000 0.000000 0.000000
Mg 8.5694560000 1.8740220000 26.5802500000 0.000000 0.000000 0.000000
Mg 11.2967560000 3.4023490000 24.3415600000 0.000000 0.000000 0.000000
Mg 4.3499820000 5.9413280000 25.0229050000 0.000000 0.000000 0.000000
Mg 6.6642320000 6.6005100000 21.8069530000 0.000000 0.000000 0.000000
Mg 6.4352500000 -2.1674540000 27.1336130000 0.000000 0.000000 0.000000
Mg 11.2285430000 6.9926330000 23.6086280000 0.000000 0.000000 0.000000
Mg 5.3031490000 7.9383890000 34.5822560000 1.258510 0.397442 -1.357400
Mg 5.9211770000 6.1907290000 31.9961060000 -0.405024 0.619016 -0.315400
Cl 6.1793770000 5.5391500000 34.3838370000 0.052941 0.136335 0.225349
Cl 6.8720100000 8.5539420000 32.7680900000 0.041975 -0.228395 -0.175277
Cl 3.7450380000 7.1647290000 32.7005160000 -0.128238 0.039579 -0.160029
O  5.2142280000 4.3468570000 31.3070880000 -0.311090 0.235267 0.149569
C  4.0476070000 3.7253600000 31.9883240000 0.147906 0.104543 0.095109
C  3.3666810000 2.8126270000 30.9622660000 0.373085 -0.032954 -0.056685
C  4.2449200000 2.9479840000 29.6904500000 -0.116033 -0.054710 -0.275570
C  5.5678170000 3.5252640000 30.1621750000 0.212088 -0.003748 0.224081
H  3.4197340000 4.5563230000 32.3182140000 -0.003582 0.086933 0.061518
H  4.4226350000 3.1831410000 32.8604190000 0.014793 -0.069440 0.046725
H  2.3465110000 3.1482780000 30.7573850000 -0.107377 -0.071002 -0.002184
H  3.3397970000 1.7811070000 31.3416390000 0.000960 0.082053 -0.084471
H  3.7745580000 3.6320050000 28.9757470000 -0.037295 0.026453 -0.067265
H  4.4101090000 1.9942850000 29.1834000000 -0.077608 -0.176619 -0.091818
H  6.0785250000 4.1827790000 29.4490890000 -0.035560 -0.017328 -0.073629
H  6.2650710000 2.7433680000 30.4968920000 -0.020900 -0.051196 -0.015656
O  4.4106550000 9.9181350000 34.4724370000 0.081859 0.092411 -0.174942
C  4.0470600000 10.7935870000 35.5935850000 0.070619 -0.024648 -0.104117
C  4.2838120000 12.2561610000 35.1261010000 -0.248094 -0.260722 -0.059111
C  4.7042980000 12.1127860000 33.6366260000 0.188030 -0.061345 0.192535
C  4.2959420000 10.7008200000 33.2280310000 -0.135721 -0.076246 0.235916
H  4.6504990000 10.4717220000 36.4505250000 0.086197 0.043347 -0.063555
H  2.9910950000 10.6300840000 35.8364730000 -0.054674 -0.015863 -0.051724
H  5.1099750000 12.7161140000 35.6927480000 -0.150960 -0.024100 -0.009922
H  3.6319100000 13.3425670000 37.3992790000 -0.013259 -0.014776 0.006905
H  5.7938590000 12.2315730000 33.5448580000 -0.063882 -0.045241 -0.043133
H  4.2278290000 12.8844700000 33.0240150000 -0.015532 0.008485 -0.128434
H  4.9640920000 10.2428070000 32.4900750000 -0.018942 -0.097620 0.112160
H  3.2562760000 10.6279810000 32.8787910000 -0.002396 0.069539 0.016207
O  5.8289740000 7.0160860000 29.8798310000 0.173543 0.132240 0.440153
C  6.4178110000 8.2931050000 29.4087180000 -0.676006 -0.290301 0.095727
C  5.1974720000 9.2000550000 29.1455470000 -0.041537 0.214391 0.119832
C  3.9816440000 8.2380390000 28.9899150000 0.090682 0.061508 -0.174370
C  4.5879970000 6.8441560000 29.1467400000 -0.001300 -0.088389 -0.414924
H  6.9991720000 8.0777790000 28.5055010000 0.007917 0.009111 -0.139620
H  7.0659680000 8.6491810000 30.2149160000 -0.006791 0.036666 -0.019064
H  5.3376340000 9.8407480000 28.2594230000 0.047938 -0.106502 0.120400
H  5.0272210000 9.8509880000 30.0217360000 0.103277 -0.082390 -0.219379
H  3.4615510000 8.3255340000 28.0219410000 0.159810 0.092092 0.026533
H  3.2318230000 8.4426300000 29.7651040000 0.051554 -0.077695 0.088191
H  4.8072660000 6.3917730000 28.1537750000 0.028198 0.076090 0.223311
H  3.9753290000 6.1438180000 29.7163570000 -0.146816 -0.064047 0.137213
O  6.6233400000 8.7823570000 36.0587200000 -0.135512 -0.090649 0.204020
C  7.4212990000 9.9769150000 35.7549000000 0.311509 0.303441 0.036159
C  8.4561740000 10.0700920000 36.8822530000 -0.226738 0.155787 -0.015636
C  7.7168760000 9.4286110000 38.0708980000 0.048964 -0.090804 -0.211788
C  7.0620600000 8.2544490000 37.3608000000 -0.026850 -0.310671 -0.246279
H  6.7347330000 10.8349740000 35.7436350000 0.065980 -0.017218 0.001082
H  7.8607960000 9.8545460000 34.7597930000 0.023449 0.003916 0.044503
H  8.7636740000 11.1041450000 37.0647740000 0.059897 0.069187 -0.051186
H  9.3438570000 9.4848700000 36.6183800000 0.076351 0.000476 0.012994
H  6.9573600000 10.1018560000 38.4868120000 0.000720 0.050761 0.019833
H  8.3885950000 9.1119750000 38.8821940000 -0.053784 -0.019099 -0.080662
H  6.1799750000 7.8216270000 37.8389680000 -0.090465 0.018879 0.103415
H  7.8006410000 7.4679060000 37.1513710000 -0.032845 -0.099270 0.092540
O  7.8975370000 5.6618350000 31.5356390000 -0.420186 -0.475391 0.231784
C  8.9720470000 6.3537150000 30.8702440000 0.620580 -0.153311 0.165333
C  9.8691610000 5.2066640000 30.4217940000 0.043220 -0.100684 -0.146813
C  9.8357520000 4.2538130000 31.6427100000 0.128663 0.049067 -0.278723
C  8.4873970000 4.5365140000 32.3004620000 -0.338960 0.149682 -0.002321
H  9.5073660000 6.9845210000 31.5976810000 -0.118904 0.125137 -0.061336
H  8.5618740000 6.9754240000 30.0724590000 -0.099518 -0.074489 -0.041781
H  10.8829640000 5.5385300000 30.1858550000 0.168928 0.068995 -0.074946
H  9.4496560000 4.7070620000 29.5339570000 0.026354 0.100262 0.088423
H  10.6469660000 4.4776480000 32.3427260000 0.090501 0.042706 -0.002174
H  9.9412220000 3.2137260000 31.3226530000 -0.025644 -0.137577 0.021814
H  8.5797280000 4.8571550000 33.3455010000 -0.002836 -0.071506 -0.038496
H  7.7463250000 3.7268300000 32.2491690000 0.138871 0.001124 0.002137
O  3.8632860000 7.4425960000 36.1785050000 0.267218 0.081797 -0.378295
C  2.4277210000 7.5570470000 35.8870250000 -0.024752 -0.240005 -0.072601
C  1.9322530000 6.1115890000 35.6260260000 -0.212440 0.174900 0.196909
C  3.0597950000 5.2036150000 36.1710770000 0.212760 0.102794 -0.173880
C  4.0171710000 6.1728480000 36.8694940000 -0.079943 -0.250692 0.232451
H  2.3257150000 8.2452230000 35.0418390000 -0.003646 -0.068916 -0.087010
H  1.9447080000 8.0015990000 36.7652900000 0.020936 0.001275 0.084482
H  1.7870480000 5.9267580000 34.5580650000 -0.045060 0.110853 -0.075225
H  0.9728010000 5.9376880000 36.1408730000 0.175055 0.071687 -0.143434
H  3.5901620000 4.7184460000 35.3394260000 -0.025602 -0.021774 0.069961
H  2.6996000000 4.4269240000 36.8509040000 -0.035764 -0.069848 0.057348
H  5.0613730000 5.8696490000 36.7764650000 0.155160 -0.000568 0.020829
H  3.7676430000 6.3221130000 37.9306940000 -0.043466 0.039105 -0.006104
Al 5.6772260000 -0.0349560000 34.1734520000 -0.335161 -0.109610 -0.080750
Cl 6.0319760000 0.1043630000 31.9276270000 -0.028335 0.327860 0.186924
Cl 3.8654780000 1.1645210000 34.5349340000 -0.018511 0.000270 -0.026724
C  7.1648380000 0.8088500000 35.1601890000 -0.063618 -0.036670 -0.225179
C  8.2434950000 1.3825090000 34.5671790000 0.048104 0.209124 -0.050193
C  9.4139560000 2.0083820000 35.3125260000 0.173484 -0.177910 0.167921
C  9.1144440000 2.2546190000 36.8205170000 -0.153400 0.038223 -0.164184
C  8.0744220000 1.3285290000 37.3989000000 -0.176622 0.206092 0.213995
C  7.1149330000 0.7747780000 36.6281620000 0.439850 -0.160706 0.034759
H  8.3313420000 1.3664640000 33.4751190000 -0.047206 0.034238 0.118094
H  9.6461680000 2.9863160000 34.8651710000 -0.016479 0.016607 -0.095571
H  8.7274420000 3.2856420000 36.9320250000 0.014106 -0.045852 0.044422
H  8.0256960000 1.2134580000 38.4830760000 0.050937 0.077088 -0.051111
H  6.3191940000 0.2121200000 37.1081520000 -0.120602 -0.076985 0.062519
C  5.1214960000 -1.9080290000 34.6102370000 0.039545 0.203473 0.010188
C  4.0244060000 -2.5300290000 33.9650160000 0.052904 0.006904 0.110904
C  3.4240400000 -3.6874780000 34.4757140000 0.090773 -0.069883 0.127483
C  3.9189270000 -4.2676690000 35.6541990000 0.002697 0.134014 -0.091746
C  5.0056590000 -3.6807630000 36.3138500000 -0.017988 -0.113801 -0.175279
C  5.6015110000 -2.5271400000 35.7845120000 -0.173401 0.034562 0.058913
H  3.5874600000 -2.0821520000 33.0713640000 0.024367 0.046702 0.003644
H  2.5418170000 -4.1116380000 33.9934370000 0.052370 0.077849 0.007653
H  3.4419660000 -5.1565790000 36.0567970000 -0.048783 -0.108156 0.061793
H  5.3855250000 -4.1214890000 37.2330670000 0.011724 -0.006899 0.052985
H  6.4257560000 -2.0747000000 36.3382290000 -0.013329 0.019921 -0.048816
172
Lattice="12.836 0 0 6.418 11.116 0 0 0 55" Properties=species:S:1:pos:R:3:forces:R:3 energy=-124894.526126 charge=0 pbc="T T T" config_type=t10_react_bare dataset_ver=5fdb48a
Mg 0.0000000000 1.8527170000 16.0000000000 0.000000 0.000000 0.000000
Mg 3.2090000000 1.8527170000 16.0000000000 0.000000 0.000000 0.000000
Mg 6.4180000000 1.8527170000 16.0000000000 0.000000 0.000000 0.000000
Mg 9.6270000000 1.8527170000 16.0000000000 0.000000 0.000000 0.000000
Mg 1.6045000000 4.6317930000 16.0000000000 0.000000 0.000000 0.000000
Mg 4.8135000000 4.6317930000 16.0000000000 0.000000 0.000000 0.000000
Mg 8.0225000000 4.6317930000 16.0000000000 0.000000 0.000000 0.000000
Mg 11.2315000000 4.6317930000 16.0000000000 0.000000 0.000000 0.000000
Mg 3.2090000000 7.4108680000 16.0000000000 0.000000 0.000000 0.000000
Mg 6.4180000000 7.4108680000 16.0000000000 0.000000 0.000000 0.000000
Mg 9.6270000000 7.4108680000 16.0000000000 0.000000 0.000000 0.000000
Mg 12.8360000000 7.4108680000 16.0000000000 0.000000 0.000000 0.000000
Mg 4.8135000000 10.1899440000 16.0000000000 0.000000 0.000000 0.000000
Mg 8.0225000000 10.1899440000 16.0000000000 0.000000 0.000000 0.000000
Mg 11.2315000000 10.1899440000 16.0000000000 0.000000 0.000000 0.000000
Mg 14.4405000000 10.1899440000 16.0000000000 0.000000 0.000000 0.000000
Mg 0.0000000000 0.0000000000 18.6055000000 0.000000 0.000000 0.000000
Mg 3.2090000000 0.0000000000 18.6055000000 0.000000 0.000000 0.000000
Mg 6.4180000000 0.0000000000 18.6055000000 0.000000 0.000000 0.000000
Mg 9.6270000000 0.0000000000 18.6055000000 0.000000 0.000000 0.000000
Mg 1.6045000000 2.7790760000 18.6055000000 0.000000 0.000000 0.000000
Mg 4.8135000000 2.7790760000 18.6055000000 0.000000 0.000000 0.000000
Mg 8.0225000000 2.7790760000 18.6055000000 0.000000 0.000000 0.000000
Mg 11.2315000000 2.7790760000 18.6055000000 0.000000 0.000000 0.000000
Mg 3.2090000000 5.5581510000 18.6055000000 0.000000 0.000000 0.000000
Mg 6.4180000000 5.5581510000 18.6055000000 0.000000 0.000000 0.000000
Mg 9.6270000000 5.5581510000 18.6055000000 0.000000 0.000000 0.000000
Mg 12.8360000000 5.5581510000 18.6055000000 0.000000 0.000000 0.000000
Mg 4.8135000000 8.3372270000 18.6055000000 0.000000 0.000000 0.000000
Mg 8.0225000000 8.3372270000 18.6055000000 0.000000 0.000000 0.000000
Mg 11.2315000000 8.3372270000 18.6055000000 0.000000 0.000000 0.000000
Mg 14.4405000000 8.3372270000 18.6055000000 0.000000 0.000000 0.000000
Mg -1.5882924575 1.5969432119 20.9143411283 0.000000 0.000000 0.000000
Mg 1.1894985511 1.6961825921 22.4880763187 0.000000 0.000000 0.000000
Mg 4.7082116660 0.9734326081 21.6915152572 0.000000 0.000000 0.000000
Mg 8.0419410932 0.7209275022 21.0761604333 0.000000 0.000000 0.000000
Mg -0.2617038287 4.5546852254 21.8849602682 0.000000 0.000000 0.000000
Mg 2.8709703845 3.8183617523 20.9604981252 0.000000 0.000000 0.000000
Mg 7.0830362804 1.7656074199 23.1916752980 0.000000 0.000000 0.000000
Mg 5.9716655880 3.7629894587 21.5530136501 0.000000 0.000000 0.000000
Mg 0.9344533890 6.6614723760 21.1363186970 0.000000 0.000000 0.000000
Mg 3.9465418789 6.3060811785 21.9415981395 0.000000 0.000000 0.000000
Mg 9.4047655872 4.3230381729 21.4594536334 0.000000 0.000000 0.000000
Mg 10.5695965012 6.8528454686 21.0651477156 0.000000 0.000000 0.000000
Mg 2.8469311490 9.0987538003 21.2594973035 0.000000 0.000000 0.000000
Mg 6.2972909038 9.7474390681 21.2655367146 0.000000 0.000000 0.000000
Mg 9.1836424695 10.4530763942 21.7156374022 0.000000 0.000000 0.000000
Mg 12.4898018151 9.1068723621 21.8868903614 0.000000 0.000000 0.000000
Mg -1.3750382938 -2.2553599751 23.7452410871 0.000000 0.000000 0.000000
Mg 7.0911708751 -2.0615365329 30.8318515779 0.000000 0.000000 0.000000
Mg 3.5418057074 -0.1222977752 24.2298528716 0.000000 0.000000 0.000000
Mg 8.5907210057 -3.1476704987 24.1632403779 0.000000 0.000000 0.000000
Mg -0.4583197070 0.3727000502 24.7994697763 0.000000 0.000000 0.000000
Mg 4.1612588220 2.9525290170 23.8319348269 0.000000 0.000000 0.000000
Mg 8.5857317263 8.0359357521 23.1246058587 0.000000 0.000000 0.000000
Mg 9.6773716409 0.6244798468 23.4425907808 0.000000 0.000000 0.000000
Mg 1.3062832566 5.1369957813 24.1857925905 0.000000 0.000000 0.000000
Mg 7.3261864198 4.5891860622 24.2499403863 0.000000 0.000000 0.000000
Mg 8.5708501686 1.8739679519 26.5811418499 0.000000 0.000000 0.000000
Mg 11.2914925669 3.4014627127 24.3422978818 0.000000 0.000000 0.000000
Mg 4.3460274229 5.9409799939 25.0219298364 0.000000 0.000000 0.000000
Mg 6.6646183059 6.6042784481 21.8098143507 0.000000 0.000000 0.000000
Mg 6.4330992522 -2.1658915494 27.1367787468 0.000000 0.000000 0.000000
Mg 11.2348736859 6.9956804351 23.6119644015 0.000000 0.000000 0.000000
Mg 5.3046997364 7.9349458038 34.5793673307 1.287251 0.685019 0.543310
Mg 5.9275386932 6.1928100614 31.9936185115 -2.439163 -0.380275 1.236852
Cl 6.1761070837 5.5357346787 34.3841067840 0.055070 0.151751 0.211310
Cl 6.8674218456 8.5557698576 32.7665927033 0.069964 -0.229766 -0.167815
Cl 3.7438767093 7.1692234899 32.7017405970 -0.109017 0.018663 -0.169536
O  5.2143953595 4.3453086154 31.3067931950 -0.400594 0.116801 0.216377
C  4.0408150890 3.7247727112 31.9888643940 0.480053 -0.456628 -0.060677
C  3.3678780524 2.8128487715 30.9545257382 0.146240 0.338806 -0.212738
C  4.2426245282 2.9425144926 29.6875522474 -0.187922 0.508586 -0.547662
C  5.5654604236 3.5226582001 30.1601795222 0.470105 -0.283885 0.387852
H  3.4244525602 4.5463526063 32.3172300335 -0.284761 0.454587 0.187256
H  4.3960491652 3.1556681296 32.8596185520 0.072909 0.126417 -0.089081
H  2.3419593418 3.1393642319 30.7416192641 0.014422 -0.090061 0.054355
H  3.3501066984 1.7855604707 31.3079651983 -0.038449 -0.285238 0.173399
H  3.7825311741 3.6559780322 28.9755369983 0.072218 -0.295993 0.136289
H  4.3849439852 1.9891184841 29.1769725547 0.002199 -0.171918 -0.140204
H  6.0891725230 4.1744477863 29.4542046274 -0.085250 0.058676 -0.149017
H  6.2746827170 2.7420350584 30.4961994256 -0.204291 0.054755 -0.051688
O  4.4155094181 9.9135743560 34.4769002814 0.038081 0.280634 -0.285679
C  4.0497775852 10.8030989282 35.5981292517 0.870385 -0.377777 -0.170395
C  4.2842045297 12.2561888607 35.1269505815 -0.105496 -0.101226 0.066033
C  4.6971859761 12.1110075230 33.6284699951 0.586929 -0.563891 0.927356
C  4.2921166331 10.6959140408 33.2269334637 0.664015 -0.059513 0.532883
H  4.6714904464 10.4683337682 36.4415061387 0.022980 0.168624 -0.087713
H  3.0205265583 10.6221934728 35.8582749064 -0.703926 -0.059232 0.032963
H  5.1132114051 12.7137873713 35.7154792824 -0.387147 -0.125718 -0.325798
H  3.6373624285 13.3348437046 37.3933456233 -0.072865 -0.022603 0.016090
H  5.7858107961 12.2424859613 33.5624809110 -0.009478 -0.130039 -0.171102
H  4.2360701428 12.8664765913 33.0256953740 -0.407220 0.590032 -0.564483
H  4.9612726845 10.2450258695 32.4845623908 -0.020244 -0.118838 0.151323
H  3.2730459312 10.6148584102 32.8918878933 -0.748036 0.041655 -0.235288
O  5.8253321789 7.0194745568 29.8741304195 0.410278 -0.016785 0.523764
C  6.4182387957 8.2885835014 29.4148309008 0.389990 0.044449 -0.323420
C  5.1941022067 9.2033103078 29.1513271058 0.250037 -0.309046 -0.227138
C  3.9876885602 8.2410394882 28.9972468663 -0.521965 0.044111 -0.974509
C  4.5905777995 6.8448185197 29.1472139556 -0.793938 -1.073217 -0.127922
H  7.0158134767 8.0824359557 28.4667280732 -0.574412 0.203034 0.988379
H  7.0781185513 8.6645282402 30.2514264542 -0.571928 -0.392549 -0.865469
H  5.3367725775 9.8248079920 28.2515783994 0.028733 0.005527 0.253476
H  5.0380266917 9.8215277044 30.0315092232 -0.017270 0.398654 0.122697
H  3.4519044483 8.3488791785 28.0090016690 0.552532 -0.070719 0.668017
H  3.2183180612 8.4320687625 29.7579157048 0.135539 -0.039059 0.144294
H  4.7947330815 6.3618147410 28.1487840739 -0.005971 0.332093 0.554991
H  3.9589389643 6.1190750017 29.7470658957 0.528395 0.774880 -0.524849
O  6.6209650217 8.7822257603 36.0525703542 -0.079199 -0.131709 0.175730
C  7.4233334758 9.9751375621 35.7491114889 0.241849 0.026488 0.885166
C  8.4570792608 10.0793984779 36.8794159125 -0.777229 -0.580227 0.122368
C  7.7146177940 9.4321942728 38.0797468151 0.126890 -0.032215 -0.287948
C  7.0530009245 8.2558198354 37.3557510539 1.292892 0.496124 -0.714309
H  6.7327816437 10.8060089244 35.7429650936 -0.266129 0.537787 0.015089
H  7.8510170024 9.8733488973 34.7738933625 0.399186 -0.186311 -0.744875
H  8.7473758448 11.0976215417 37.0558550031 0.280520 0.744246 0.072137
H  9.3379630278 9.4925054392 36.6342230146 0.330250 -0.111518 -0.123057
H  6.9555237612 10.1275890373 38.4842959437 0.207080 -0.236172 0.024123
H  8.4022289797 9.0986463878 38.8916505719 -0.405720 0.185801 -0.393035
H  6.2072039236 7.8396364599 37.8222742279 -1.352192 -0.589889 0.732664
H  7.7963169995 7.4766065082 37.1475176006 0.021529 -0.156942 0.094066
O  7.8947955374 5.6611271448 31.5311261694 -0.340258 -0.444893 0.392136
C  8.9746713748 6.3539668111 30.8704047227 0.444643 0.137697 -0.359235
C  9.8675664350 5.2063168155 30.4122103708 0.560949 0.230608 0.307118
C  9.8343204177 4.2565139165 31.6378698820 0.119813 -0.506340 -0.352612
C  8.4824303905 4.5371510712 32.3064961119 -0.217546 -0.198200 -0.725509
H  9.5129812713 6.9886670367 31.5937711159 -0.166003 0.072745 -0.059724
H  8.5743845700 6.9826991268 30.0481643624 0.019936 -0.377840 0.441672
H  10.8903963564 5.5501707747 30.1710978886 -0.209879 -0.095461 0.032510
H  9.4487979106 4.7171309956 29.5342884524 -0.127468 -0.106055 -0.234563
H  10.6474192462 4.4622545969 32.3457835668 0.043253 0.065858 -0.118992
H  9.9232786700 3.1988768199 31.3156468748 -0.018759 0.341393 0.147256
H  8.5976333212 4.8435960156 33.3390891987 -0.104034 0.128458 0.376048
H  7.7513476365 3.7085841963 32.2430164759 0.235434 0.274362 0.073126
O  3.8651234701 7.4406683338 36.1777526269 0.308942 0.194767 -0.491602
C  2.4408730624 7.5609907960 35.8869298465 -0.412963 -0.508540 0.421564
C  1.9242756730 6.1136603784 35.6327905715 0.922079 0.145936 -0.589305
C  3.0646670192 5.1934926833 36.1773159185 -0.554745 0.598974 0.220189
C  4.0097096278 6.1770859098 36.8685650859 -0.352086 -0.385584 -0.662737
H  2.3231392857 8.2452575174 35.0542785283 0.000645 0.172805 -0.342446
H  1.9645496734 7.9938230714 36.7841056872 0.049910 -0.032675 -0.155560
H  1.8045426339 5.9053743690 34.5495431401 -0.157111 0.285083 0.451299
H  0.9968848648 5.9600959158 36.1527245124 -0.689263 -0.118128 0.187624
H  3.5455178301 4.7070382639 35.3393478602 0.428517 -0.231078 -0.268502
H  2.7059475839 4.4226223099 36.8669830852 -0.044637 -0.016497 0.031438
H  5.0256752323 5.8872885031 36.7412005165 1.134478 -0.321782 0.078060
H  3.7807955470 6.3189921577 37.9073695551 -0.263790 0.153413 0.866923
Al 5.6772801862 -0.0386748070 34.1720675825 -0.269814 0.001416 -0.044736
Cl 6.0340519275 0.1062710174 31.9280719750 -0.025275 0.312974 0.180065
Cl 3.8654631992 1.1659490792 34.5300043028 -0.009858 -0.006461 -0.021316
C  7.1716277170 0.8041551997 35.1613603290 -0.386554 -0.115635 -0.317083
C  8.2455566925 1.3797329765 34.5698807294 0.157494 0.138295 0.380607
C  9.4136322138 2.0032137625 35.3144031491 0.085152 -0.385235 0.210321
C  9.1150869031 2.2496204803 36.8193155004 0.067055 0.203815 -0.197685
C  8.0766277520 1.3367427119 37.3954661891 -0.528680 -0.212869 -0.180583
C  7.1113208371 0.7755433229 36.6250552061 0.317383 -0.344181 0.560836
H  8.3503543594 1.3586329040 33.4948491633 -0.075447 0.007936 -0.410350
H  9.6304795949 2.9628604924 34.8465176667 0.105851 0.386072 -0.112426
H  8.7353822496 3.2801793050 36.9355368122 0.004018 0.054578 0.029941
H  8.0438704124 1.1896652743 38.4655817052 0.021496 0.113014 0.331815
H  6.3109506765 0.1927568070 37.1196376011 0.354624 0.291105 -0.253235
C  5.1165077192 -1.9015710467 34.6107443185 0.181295 -0.017728 0.277382
C  4.0240349945 -2.5321285121 33.9646861589 0.230782 0.525468 -0.167437
C  3.4334765943 -3.6829460570 34.4704741285 0.098923 -0.273986 0.562854
C  3.9174777783 -4.2631768261 35.6584279946 -0.074083 0.020795 -0.238037
C  5.0046264183 -3.6802655283 36.3126464816 0.279660 -0.376919 0.494305
C  5.5968990375 -2.5300787868 35.7887560416 0.478215 0.731939 0.194565
H  3.5844111294 -2.0717244197 33.0706667693 0.091772 -0.090109 0.162359
H  2.5511924648 -4.0863412900 33.9958563381 -0.253635 -0.152167 -0.156331
H  3.4399616738 -5.1532251108 36.0615088754 -0.051701 -0.060593 0.023125
H  5.4126829306 -4.1105390142 37.2471599968 -0.322129 0.134383 -0.464661
H  6.4357522306 -2.0713475814 36.3721959498 -0.657504 -0.302378 -0.573865
172
Lattice="12.836 0 0 6.418 11.116 0 0 0 55" Properties=species:S:1:pos:R:3:forces:R:3 energy=-124893.477950 charge=0 pbc="T T T" config_type=t10_react_bare dataset_ver=5fdb48a
Mg 0.0000000000 1.8527170000 16.0000000000 0.000000 0.000000 0.000000
Mg 3.2090000000 1.8527170000 16.0000000000 0.000000 0.000000 0.000000
Mg 6.4180000000 1.8527170000 16.0000000000 0.000000 0.000000 0.000000
Mg 9.6270000000 1.8527170000 16.0000000000 0.000000 0.000000 0.000000
Mg 1.6045000000 4.6317930000 16.0000000000 0.000000 0.000000 0.000000
Mg 4.8135000000 4.6317930000 16.0000000000 0.000000 0.000000 0.000000
Mg 8.0225000000 4.6317930000 16.0000000000 0.000000 0.000000 0.000000
Mg 11.2315000000 4.6317930000 16.0000000000 0.000000 0.000000 0.000000
Mg 3.2090000000 7.4108680000 16.0000000000 0.000000 0.000000 0.000000
Mg 6.4180000000 7.4108680000 16.0000000000 0.000000 0.000000 0.000000
Mg 9.6270000000 7.4108680000 16.0000000000 0.000000 0.000000 0.000000
Mg 12.8360000000 7.4108680000 16.0000000000 0.000000 0.000000 0.000000
Mg 4.8135000000 10.1899440000 16.0000000000 0.000000 0.000000 0.000000
Mg 8.0225000000 10.1899440000 16.0000000000 0.000000 0.000000 0.000000
Mg 11.2315000000 10.1899440000 16.0000000000 0.000000 0.000000 0.000000
Mg 14.4405000000 10.1899440000 16.0000000000 0.000000 0.000000 0.000000
Mg 0.0000000000 0.0000000000 18.6055000000 0.000000 0.000000 0.000000
Mg 3.2090000000 0.0000000000 18.6055000000 0.000000 0.000000 0.000000
Mg 6.4180000000 0.0000000000 18.6055000000 0.000000 0.000000 0.000000
Mg 9.6270000000 0.0000000000 18.6055000000 0.000000 0.000000 0.000000
Mg 1.6045000000 2.7790760000 18.6055000000 0.000000 0.000000 0.000000
Mg 4.8135000000 2.7790760000 18.6055000000 0.000000 0.000000 0.000000
Mg 8.0225000000 2.7790760000 18.6055000000 0.000000 0.000000 0.000000
Mg 11.2315000000 2.7790760000 18.6055000000 0.000000 0.000000 0.000000
Mg 3.2090000000 5.5581510000 18.6055000000 0.000000 0.000000 0.000000
Mg 6.4180000000 5.5581510000 18.6055000000 0.000000 0.000000 0.000000
Mg 9.6270000000 5.5581510000 18.6055000000 0.000000 0.000000 0.000000
Mg 12.8360000000 5.5581510000 18.6055000000 0.000000 0.000000 0.000000
Mg 4.8135000000 8.3372270000 18.6055000000 0.000000 0.000000 0.000000
Mg 8.0225000000 8.3372270000 18.6055000000 0.000000 0.000000 0.000000
Mg 11.2315000000 8.3372270000 18.6055000000 0.000000 0.000000 0.000000
Mg 14.4405000000 8.3372270000 18.6055000000 0.000000 0.000000 0.000000
Mg -1.5850421435 1.5908015699 20.9088176875 0.000000 0.000000 0.000000
Mg 1.1850551252 1.6931440351 22.4806677798 0.000000 0.000000 0.000000
Mg 4.7218744580 0.9615326528 21.7031243330 0.000000 0.000000 0.000000
Mg 8.0539257952 0.7125632730 21.0736870550 0.000000 0.000000 0.000000
Mg -0.2551506295 4.5520772242 21.8953649218 0.000000 0.000000 0.000000
Mg 2.8738129592 3.8154223186 20.9741633410 0.000000 0.000000 0.000000
Mg 7.0721188890 1.7578911355 23.1893397323 0.000000 0.000000 0.000000
Mg 5.9609152236 3.7668769027 21.5502178569 0.000000 0.000000 0.000000
Mg 0.9368639337 6.6755659719 21.1294314808 0.000000 0.000000 0.000000
Mg 3.9444190209 6.3173343434 21.9412664279 0.000000 0.000000 0.000000
Mg 9.4096779422 4.3187921834 21.4696976453 0.000000 0.000000 0.000000
Mg 10.5688273648 6.8537313209 21.0625164772 0.000000 0.000000 0.000000
Mg 2.8410738119 9.0950185954 21.2618595097 0.000000 0.000000 0.000000
Mg 6.2959665221 9.7576456512 21.2647228926 0.000000 0.000000 0.000000
Mg 9.1953659421 10.4561831108 21.7197734908 0.000000 0.000000 0.000000
Mg 12.4931927189 9.1011242018 21.8956372969 0.000000 0.000000 0.000000
Mg -1.3781708449 -2.2513542315 23.7431979032 0.000000 0.000000 0.000000
Mg 7.0927353212 -2.0642534112 30.8280822276 0.000000 0.000000 0.000000
Mg 3.5399511257 -0.1170762689 24.2348665756 0.000000 0.000000 0.000000
Mg 8.5997065065 -3.1446089912 24.1783810231 0.000000 0.000000 0.000000
Mg -0.4647941716 0.3738487091 24.7982528597 0.000000 0.000000 0.000000
Mg 4.1683318846 2.9515645537 23.8238594423 0.000000 0.000000 0.000000
Mg 8.5676866834 8.0316403270 23.1178686311 0.000000 0.000000 0.000000
Mg 9.6775252907 0.6324748826 23.4326127493 0.000000 0.000000 0.000000
Mg 1.3191500304 5.1449429938 24.1858780907 0.000000 0.000000 0.000000
Mg 7.3300019478 4.5797093166 24.2534617330 0.000000 0.000000 0.000000
Mg 8.5737629003 1.8746231242 26.5884541768 0.000000 0.000000 0.000000
Mg 11.2834644217 3.4023251188 24.3368451661 0.000000 0.000000 0.000000
Mg 4.3399850146 5.9397854437 25.0225533434 0.000000 0.000000 0.000000
Mg 6.6675694426 6.6103250990 21.8129323644 0.000000 0.000000 0.000000
Mg 6.4288645147 -2.1629422423 27.1452387967 0.000000 0.000000 0.000000
Mg 11.2528670186 7.0037728793 23.6148463929 0.000000 0.000000 0.000000
Mg 5.3093109672 7.9289261417 34.5747990542 1.166863 0.865795 3.011569
Mg 5.9370191450 6.1962138148 31.9904646297 -0.998924 -1.411901 2.820997
Cl 6.1696247436 5.5290406394 34.3848374109 0.064103 0.176885 0.177583
Cl 6.8583241918 8.5592361683 32.7634854034 0.125499 -0.236899 -0.175412
Cl 3.7414832334 7.1782138642 32.7040701086 -0.086231 -0.000455 -0.171901
O  5.2139518036 4.3423676303 31.3066692256 -0.539943 -0.109297 0.304732