172
Lattice="12.836 0.0 0.0 6.418 11.116 0.0 0.0 0.0 55.0" Properties=species:S:1:pos:R:3:move_mask:L:1:momenta:R:3 charge=0.0 config_type=t10_react_bare dataset_ver=5fdb48a source_label=bare_neutral_seed2026070101_500ps source_step_fs=3500.0 source_md_step=7000 active_learning_reason="T17 guarded abort near-contact force-cap" abort_message="2026-07-01 08:09:10 abort step=8450 label=bare_neutral_seed2026070101_500ps: force-cap events=1" pbc="T T T"
Mg       0.00000000       1.85271700      16.00000000  F       0.00000000       0.00000000       0.00000000
Mg       3.20900000       1.85271700      16.00000000  F       0.00000000       0.00000000       0.00000000
Mg       6.41800000       1.85271700      16.00000000  F       0.00000000       0.00000000       0.00000000
Mg       9.62700000       1.85271700      16.00000000  F       0.00000000       0.00000000       0.00000000
Mg       1.60450000       4.63179300      16.00000000  F       0.00000000       0.00000000       0.00000000
Mg       4.81350000       4.63179300      16.00000000  F       0.00000000       0.00000000       0.00000000
Mg       8.02250000       4.63179300      16.00000000  F       0.00000000       0.00000000       0.00000000
Mg      11.23150000       4.63179300      16.00000000  F       0.00000000       0.00000000       0.00000000
Mg       3.20900000       7.41086800      16.00000000  F       0.00000000       0.00000000       0.00000000
Mg       6.41800000       7.41086800      16.00000000  F       0.00000000       0.00000000       0.00000000
Mg       9.62700000       7.41086800      16.00000000  F       0.00000000       0.00000000       0.00000000
Mg      12.83600000       7.41086800      16.00000000  F       0.00000000       0.00000000       0.00000000
Mg       4.81350000      10.18994400      16.00000000  F       0.00000000       0.00000000       0.00000000
Mg       8.02250000      10.18994400      16.00000000  F       0.00000000       0.00000000       0.00000000
Mg      11.23150000      10.18994400      16.00000000  F       0.00000000       0.00000000       0.00000000
Mg      14.44050000      10.18994400      16.00000000  F       0.00000000       0.00000000       0.00000000
Mg       0.00000000       0.00000000      18.60550000  F       0.00000000       0.00000000       0.00000000
Mg       3.20900000       0.00000000      18.60550000  F       0.00000000       0.00000000       0.00000000
Mg       6.41800000       0.00000000      18.60550000  F       0.00000000       0.00000000       0.00000000
Mg       9.62700000       0.00000000      18.60550000  F       0.00000000       0.00000000       0.00000000
Mg       1.60450000       2.77907600      18.60550000  F       0.00000000       0.00000000       0.00000000
Mg       4.81350000       2.77907600      18.60550000  F       0.00000000       0.00000000       0.00000000
Mg       8.02250000       2.77907600      18.60550000  F       0.00000000       0.00000000       0.00000000
Mg      11.23150000       2.77907600      18.60550000  F       0.00000000       0.00000000       0.00000000
Mg       3.20900000       5.55815100      18.60550000  F       0.00000000       0.00000000       0.00000000
Mg       6.41800000       5.55815100      18.60550000  F       0.00000000       0.00000000       0.00000000
Mg       9.62700000       5.55815100      18.60550000  F       0.00000000       0.00000000       0.00000000
Mg      12.83600000       5.55815100      18.60550000  F       0.00000000       0.00000000       0.00000000
Mg       4.81350000       8.33722700      18.60550000  F       0.00000000       0.00000000       0.00000000
Mg       8.02250000       8.33722700      18.60550000  F       0.00000000       0.00000000       0.00000000
Mg      11.23150000       8.33722700      18.60550000  F       0.00000000       0.00000000       0.00000000
Mg      14.44050000       8.33722700      18.60550000  F       0.00000000       0.00000000       0.00000000
Mg      -1.63565673       1.32894731      21.13694199  F       0.00000000       0.00000000       0.00000000
Mg       1.82832641       0.16298206      22.46052149  F       0.00000000       0.00000000       0.00000000
Mg       4.43030181       0.26769989      21.44957794  F       0.00000000       0.00000000       0.00000000
Mg       8.11142346       0.77312957      20.90194588  F       0.00000000       0.00000000       0.00000000
Mg      -0.24426921       3.62072177      21.86135973  F       0.00000000       0.00000000       0.00000000
Mg       3.09404540       2.93896108      21.80524767  F       0.00000000       0.00000000       0.00000000
Mg       6.52134854       1.59182397      23.47647249  F       0.00000000       0.00000000       0.00000000
Mg       6.30795819       3.35071631      21.47202163  F       0.00000000       0.00000000       0.00000000
Mg       1.77703248       5.98953289      21.04685082  F       0.00000000       0.00000000       0.00000000
Mg       4.16917479       7.05405354      21.29736923  F       0.00000000       0.00000000       0.00000000
Mg       9.33712534       4.26411954      21.51014390  F       0.00000000       0.00000000       0.00000000
Mg      11.24510997       6.73471124      20.93762793  F       0.00000000       0.00000000       0.00000000
Mg       3.18395033       9.75248723      21.07160998  F       0.00000000       0.00000000       0.00000000
Mg       6.18755095       9.31031793      20.86780074  F       0.00000000       0.00000000       0.00000000
Mg       8.96279501       8.70104459      21.36873081  F       0.00000000       0.00000000       0.00000000
Mg      12.93369484       9.42482371      21.77137060  F       0.00000000       0.00000000       0.00000000
Mg      -1.46630623      -0.98378789      23.73516760  F       0.00000000       0.00000000       0.00000000
Mg       1.42033034      -0.73710441      25.37993264  F       0.00000000       0.00000000       0.00000000
Mg       5.25735294      -0.89978848      24.34029769  F       0.00000000       0.00000000       0.00000000
Mg       8.52106789      -1.09816031      24.15545485  F       0.00000000       0.00000000       0.00000000
Mg      -0.20642827       1.49612919      24.42702497  F       0.00000000       0.00000000       0.00000000
Mg       3.66413011       2.05440865      24.81243503  F       0.00000000       0.00000000       0.00000000
Mg       7.91378062       1.97916293      26.26003472  F       0.00000000       0.00000000       0.00000000
Mg       9.46412679       2.38576573      23.32825590  F       0.00000000       0.00000000       0.00000000
Mg       1.67994812       4.55016414      23.82996795  F       0.00000000       0.00000000       0.00000000
Mg       4.86282903       5.26696710      24.24964481  F       0.00000000       0.00000000       0.00000000
Mg       7.87408533       4.82439194      24.38848238  F       0.00000000       0.00000000       0.00000000
Mg      10.93729305       4.72711925      23.90973299  F       0.00000000       0.00000000       0.00000000
Mg       2.93460366       7.43970087      23.82708440  F       0.00000000       0.00000000       0.00000000
Mg       6.52377012       7.82075211      23.46216890  F       0.00000000       0.00000000       0.00000000
Mg       9.67135359       7.79864442      24.25679102  F       0.00000000       0.00000000       0.00000000
Mg      12.83940448       7.22537190      23.57780887  F       0.00000000       0.00000000       0.00000000
Mg       6.89497382      11.31116447      28.04577179  T      -0.10663448      -1.06932724       0.62695236
Mg      20.83209393       2.84018828      24.32360213  T       0.10667712      -0.60695367      -1.09936266
Cl       6.39408154       9.92876343      30.06228739  T       1.03451739       0.27374401       1.27987595
Cl      -0.23609910      10.76931228      26.55830624  T      -1.10863763      -0.18179498       0.13566508
Cl      -4.72082486       4.20084295      26.69776167  T      -1.09816083       1.55414175      -0.77860259
O        8.00208235      -4.70980100      26.48551493  T      -0.67163680       0.47892355      -1.11956298
C        8.93560995      -5.63197696      27.15064164  T       0.33650016      -0.10408124       0.37280018
C        9.34874249      -4.95691687      28.50152282  T      -1.04813430       0.58050173      -0.19726343
C        8.09496863      -4.14351191      28.83663405  T       0.22772143       1.36436047       0.36081040
C        7.53993346      -3.68131978      27.45027191  T       0.08089151       0.06305389      -0.36233890
H        9.82180677      -5.79316147      26.45200803  T      -0.08053269      -0.14142091      -0.19239815
H        8.45118167      -6.59561257      27.24443306  T      -0.12849022       0.04770374      -0.06168357
H       10.27842769      -4.36991104      28.41622834  T      -0.00344688      -0.20115269      -0.07915193
H        9.56364160      -5.70078935      29.32261964  T       0.14752242      -0.04263890      -0.11348231
H        8.44587496      -3.27508305      29.43754537  T       0.08471112      -0.31780472      -0.30705348
H        7.37606059      -4.62168794      29.49982636  T      -0.08660695      -0.07846580      -0.21766037
H        8.01758852      -2.68779931      27.18443754  T      -0.13315496       0.11294570       0.18498434
H        6.44319310      -3.53215382      27.43746990  T      -0.06840033       0.20926047       0.10916936
O        5.60605256       8.93858856      35.82179739  T      -0.21111012      -0.09910503       0.51058755
C        5.08324680      10.16122944      35.17862864  T      -0.31126734       0.13082701       0.61001737
C        6.26219132      10.78132017      34.41825231  T       0.07119611       0.83076069      -0.45835919
C        6.97024161       9.51800231      33.84469369  T       0.46328172      -0.09493040      -1.01496133
C        6.63190063       8.45579582      34.94322622  T      -0.23548929      -0.45864142       0.46446810
H        4.80440796      10.85661026      36.02548196  T      -0.00604316       0.00514618      -0.01995399
H        4.21032257      10.04975868      34.47125214  T      -0.12084883       0.10160975      -0.14955403
H        7.04260265      11.08195324      35.25684971  T       0.08639508      -0.14505948      -0.17776838
H        6.06811954      13.59952193      34.89813898  T       0.25670861      -0.34513411       0.03861610
H        8.07949798       9.71556297      33.75504136  T       0.14975259      -0.16174706      -0.11502293
H        6.52778099       9.18330321      32.89837522  T      -0.12780744      -0.13648152      -0.23731582
H        7.50696608       8.31112811      35.67469469  T       0.18772684       0.30302769       0.09949609
H        6.18993343       7.56252106      34.45071239  T      -0.12467708       0.14847616       0.10438997
O        6.12036406       6.98553550      25.30812593  T       1.40664344      -0.97660423       0.16819425
C        6.05046889      11.03471465      26.23032088  T      -0.01956856      -1.02366247      -0.51806424
C        5.12581636       9.81657926      26.59355947  T      -0.35398076       0.38713293      -0.94275004
C        5.78076559       8.56797562      27.20170741  T      -0.28312122      -0.86595093      -0.48287102
C        5.40199547       7.28673878      26.48509701  T       0.27502865       0.03491026      -0.27163311
H        5.34497117      11.90810558      26.24737046  T       0.06938863       0.07263718       0.02424532
H        4.57555815       9.33382778      25.68635114  T      -0.01345056      -0.21909932      -0.05102500
H        3.14407217      14.24837468      25.02719488  T      -0.03899471       0.39259117       0.32672264
H        4.30175988      10.17439683      27.28319965  T      -0.03591195       0.05096136       0.17526722
H        5.51905573       8.62207193      28.27050303  T      -0.12988268       0.16976226      -0.03610477
H        6.88781428       8.63745174      27.12146810  T      -0.26411703      -0.05393567      -0.07057688
H        4.25679626       7.39118133      26.38783183  T      -0.10906653       0.05369283      -0.26131700
H        5.33071382       6.39597832      27.10609236  T       0.18422178       0.14859717       0.04063424
O        4.68494023      14.42855849      27.61369641  T       0.67231107       0.79353266      -0.55461049
C        5.91079347      15.02556663      28.08647080  T      -0.08772968       0.52769420       0.25615116
C        5.75279994      15.12120766      29.57725817  T      -0.69074685      -0.36542146       0.50658879
C        4.77684276      13.90077704      29.88030737  T      -0.91446717       0.56927029       0.46329012
C        3.82908428      13.92406871      28.75092574  T       0.20283859       0.68784887       0.40175832
H        5.91225656      15.98109001      27.55268432  T       0.15187628      -0.12536752       0.35547539
H        6.78180364      14.43115032      27.70913941  T       0.02732423       0.18899101       0.35602692
H        5.21050676      16.02019494      29.86055502  T      -0.05544634       0.02182706      -0.11987814
H        6.74172272      15.14865945      30.11526640  T       0.05203769      -0.26268855       0.20020921
H        4.32435863      14.06445911      30.86204233  T       0.01286576       0.21139595      -0.18887279
H        5.24395635      12.88023960      29.97078244  T       0.12748122       0.13559517       0.31986452
H        3.02648247      14.66213334      28.85278013  T       0.05082020       0.22129799      -0.28308004
H        3.44441908      12.89866658      28.56912774  T      -0.18522656      -0.13644116       0.03633265
O        8.29443596      12.54843494      28.68297972  T      -0.95923323      -1.03923223       0.64107645
C        8.41676348      12.60896066      30.06081495  T       0.31662687      -0.14346483       0.95984377
C        9.42540283      13.75307014      30.35541375  T      -0.46543549       0.16330915      -0.14150656
C       10.49235982      13.38727136      29.29376130  T      -0.42782026       0.37348240       0.35851640
C        9.67324771      12.79959839      28.12035255  T       0.48698195       0.62489396       0.08107662
H        8.75855947      11.66033334      30.36119974  T       0.15918766       0.12525249       0.01002348
H        7.38549309      12.78073567      30.40762704  T       0.14599479      -0.16411453      -0.28957600
H        9.81037949      13.56516263      31.37930952  T       0.12212187      -0.00708876       0.30236099
H        9.08313202      14.76006597      30.17983653  T      -0.01956388       0.08267695      -0.20864138
H       10.96623317      12.43752447      29.74636431  T       0.13260311      -0.23616239      -0.00767924
H       11.16490415      14.22399481      29.12401398  T      -0.23065160      -0.06050614       0.12484493
H       10.08141916      11.82415182      27.78209456  T      -0.15014690       0.05318042       0.14295218
H        9.46282503      13.47371784      27.22642168  T      -0.06646473       0.21656109       0.37981654
O        9.50905053       8.86376455      27.23747506  T      -0.21994346       0.01816839       0.14006216
C        9.33638559       7.41232901      27.07139329  T       0.32641794       0.47752173       0.19423848
C        8.86896967       6.95998397      28.45177732  T      -1.61042494       0.56611759      -0.21432992
C        9.77211865       7.75496797      29.41731348  T      -0.51365645       0.70002461      -0.20648853
C       10.02824346       9.06562630      28.59574777  T       0.17480312      -0.43164465       0.70334879
H       10.28132778       6.96562658      26.78673348  T      -0.09678268       0.01013184      -0.13997444
H        8.49537060       7.18626677      26.36539490  T      -0.02665667      -0.31077490      -0.22915667
H        8.94973624       5.86499118      28.52278440  T       0.33154097       0.08609446       0.01591730
H        7.79164142       7.11893548      28.55762888  T       0.17703987       0.25269407       0.10371453
H       10.58667104       7.15457346      29.74318174  T       0.17459990      -0.03768825      -0.11778169
H        9.12828026       7.99270290      30.24921991  T      -0.05713768       0.09897565      -0.17557473
H       11.05588032       9.33539214      28.46327368  T       0.04177396      -0.05611481       0.02267004
H        9.42210880       9.86586890      28.92305298  T       0.22319673       0.04463688       0.28580934
Al       8.35236472       0.14362513      31.40145472  T      -0.65988105      -0.19866821      -0.11409388
Cl       9.15540222      -0.74748786      29.56386793  T       1.35539142       0.54900538       0.92824883
Cl       7.58427447       2.12031538      30.39155160  T      -1.25163978       1.37710763      -0.10469518
C        9.80372664       0.80318982      32.58731280  T       0.78804818      -0.40527441       0.58490252
C       11.03189864       0.32447557      32.49651311  T       0.35816934      -0.00957081       0.33070816
C       12.26378089       0.80153434      33.39742099  T       1.13705794       0.09951433      -0.10129275
C       11.92484007       2.16047791      34.01666396  T       0.58950432      -0.02559397      -0.16811250
C       10.48903074       2.30591998      34.34424131  T       0.22890806      -0.49697994      -0.07545320
C        9.50572151       1.70829633      33.70779653  T       0.28031221      -0.06425577      -0.06712591
H       11.34873632      -0.45330483      31.82136307  T      -0.12842330      -0.13123067       0.21876182
H       13.06205884       0.88871724      32.62808858  T      -0.15822719       0.36925803       0.07861003
H       12.17993692       2.89747321      33.12246451  T      -0.00916728      -0.22892626      -0.27861806
H       10.20672474       3.05031706      35.11155826  T       0.46021567       0.11981329      -0.32788270
H        8.43502558       1.82153082      33.90426105  T       0.03013630      -0.12881307       0.08945397
C        6.81477276      -0.91482186      32.08679640  T      -0.53428429       0.27128840       0.48776515
C        5.60953883      -0.14831589      32.37535857  T       0.39963340      -0.57818092      -0.43126082
C        4.39064564      -0.76319786      32.70304613  T      -0.47681733      -0.27067510      -1.30903005
C        4.27994729      -2.13309607      32.60558031  T      -0.11150782      -0.22992615      -0.65765682
C        5.35480205      -2.94134037      32.22819796  T      -0.10853411       0.75582468      -1.06168473
C        6.63465636      -2.33567102      32.04170763  T      -0.46922398       0.26679211       0.29393617
H        5.54410363       0.88272149      32.05279342  T      -0.01039661       0.06767032       0.12616611
H        3.45717618      -0.16917600      32.86441367  T      -0.14859169       0.13017709      -0.17989540
H        3.29782344      -2.54792063      32.79141621  T       0.23041145       0.00780397       0.03020547
H        5.22797861      -4.04298805      32.21266839  T      -0.13852915       0.00200213       0.05582824
H        7.43439662      -3.10765512      31.95086080  T       0.09352997      -0.04813258       0.01930052
172
Lattice="12.836 0.0 0.0 6.418 11.116 0.0 0.0 0.0 55.0" Properties=species:S:1:pos:R:3:move_mask:L:1:momenta:R:3 charge=0.0 config_type=t10_react_bare dataset_ver=5fdb48a source_label=bare_neutral_seed2026070101_500ps source_step_fs=3600.0 source_md_step=7200 active_learning_reason="T17 guarded abort near-contact force-cap" abort_message="2026-07-01 08:09:10 abort step=8450 label=bare_neutral_seed2026070101_500ps: force-cap events=1" pbc="T T T"
Mg       0.00000000       1.85271700      16.00000000  F       0.00000000       0.00000000       0.00000000
Mg       3.20900000       1.85271700      16.00000000  F       0.00000000       0.00000000       0.00000000
Mg       6.41800000       1.85271700      16.00000000  F       0.00000000       0.00000000       0.00000000
Mg       9.62700000       1.85271700      16.00000000  F       0.00000000       0.00000000       0.00000000
Mg       1.60450000       4.63179300      16.00000000  F       0.00000000       0.00000000       0.00000000
Mg       4.81350000       4.63179300      16.00000000  F       0.00000000       0.00000000       0.00000000
Mg       8.02250000       4.63179300      16.00000000  F       0.00000000       0.00000000       0.00000000
Mg      11.23150000       4.63179300      16.00000000  F       0.00000000       0.00000000       0.00000000
Mg       3.20900000       7.41086800      16.00000000  F       0.00000000       0.00000000       0.00000000
Mg       6.41800000       7.41086800      16.00000000  F       0.00000000       0.00000000       0.00000000
Mg       9.62700000       7.41086800      16.00000000  F       0.00000000       0.00000000       0.00000000
Mg      12.83600000       7.41086800      16.00000000  F       0.00000000       0.00000000       0.00000000
Mg       4.81350000      10.18994400      16.00000000  F       0.00000000       0.00000000       0.00000000
Mg       8.02250000      10.18994400      16.00000000  F       0.00000000       0.00000000       0.00000000
Mg      11.23150000      10.18994400      16.00000000  F       0.00000000       0.00000000       0.00000000
Mg      14.44050000      10.18994400      16.00000000  F       0.00000000       0.00000000       0.00000000
Mg       0.00000000       0.00000000      18.60550000  F       0.00000000       0.00000000       0.00000000
Mg       3.20900000       0.00000000      18.60550000  F       0.00000000       0.00000000       0.00000000
Mg       6.41800000       0.00000000      18.60550000  F       0.00000000       0.00000000       0.00000000
Mg       9.62700000       0.00000000      18.60550000  F       0.00000000       0.00000000       0.00000000
Mg       1.60450000       2.77907600      18.60550000  F       0.00000000       0.00000000       0.00000000
Mg       4.81350000       2.77907600      18.60550000  F       0.00000000       0.00000000       0.00000000
Mg       8.02250000       2.77907600      18.60550000  F       0.00000000       0.00000000       0.00000000
Mg      11.23150000       2.77907600      18.60550000  F       0.00000000       0.00000000       0.00000000
Mg       3.20900000       5.55815100      18.60550000  F       0.00000000       0.00000000       0.00000000
Mg       6.41800000       5.55815100      18.60550000  F       0.00000000       0.00000000       0.00000000
Mg       9.62700000       5.55815100      18.60550000  F       0.00000000       0.00000000       0.00000000
Mg      12.83600000       5.55815100      18.60550000  F       0.00000000       0.00000000       0.00000000
Mg       4.81350000       8.33722700      18.60550000  F       0.00000000       0.00000000       0.00000000
Mg       8.02250000       8.33722700      18.60550000  F       0.00000000       0.00000000       0.00000000
Mg      11.23150000       8.33722700      18.60550000  F       0.00000000       0.00000000       0.00000000
Mg      14.44050000       8.33722700      18.60550000  F       0.00000000       0.00000000       0.00000000
Mg      -1.63565673       1.32894731      21.13694199  F       0.00000000       0.00000000       0.00000000
Mg       1.82832641       0.16298206      22.46052149  F       0.00000000       0.00000000       0.00000000
Mg       4.43030181       0.26769989      21.44957794  F       0.00000000       0.00000000       0.00000000
Mg       8.11142346       0.77312957      20.90194588  F       0.00000000       0.00000000       0.00000000
Mg      -0.24426921       3.62072177      21.86135973  F       0.00000000       0.00000000       0.00000000
Mg       3.09404540       2.93896108      21.80524767  F       0.00000000       0.00000000       0.00000000
Mg       6.52134854       1.59182397      23.47647249  F       0.00000000       0.00000000       0.00000000
Mg       6.30795819       3.35071631      21.47202163  F       0.00000000       0.00000000       0.00000000
Mg       1.77703248       5.98953289      21.04685082  F       0.00000000       0.00000000       0.00000000
Mg       4.16917479       7.05405354      21.29736923  F       0.00000000       0.00000000       0.00000000
Mg       9.33712534       4.26411954      21.51014390  F       0.00000000       0.00000000       0.00000000
Mg      11.24510997       6.73471124      20.93762793  F       0.00000000       0.00000000       0.00000000
Mg       3.18395033       9.75248723      21.07160998  F       0.00000000       0.00000000       0.00000000
Mg       6.18755095       9.31031793      20.86780074  F       0.00000000       0.00000000       0.00000000
Mg       8.96279501       8.70104459      21.36873081  F       0.00000000       0.00000000       0.00000000
Mg      12.93369484       9.42482371      21.77137060  F       0.00000000       0.00000000       0.00000000
Mg      -1.46630623      -0.98378789      23.73516760  F       0.00000000       0.00000000       0.00000000
Mg       1.42033034      -0.73710441      25.37993264  F       0.00000000       0.00000000       0.00000000
Mg       5.25735294      -0.89978848      24.34029769  F       0.00000000       0.00000000       0.00000000
Mg       8.52106789      -1.09816031      24.15545485  F       0.00000000       0.00000000       0.00000000
Mg      -0.20642827       1.49612919      24.42702497  F       0.00000000       0.00000000       0.00000000
Mg       3.66413011       2.05440865      24.81243503  F       0.00000000       0.00000000       0.00000000
Mg       7.91378062       1.97916293      26.26003472  F       0.00000000       0.00000000       0.00000000
Mg       9.46412679       2.38576573      23.32825590  F       0.00000000       0.00000000       0.00000000
Mg       1.67994812       4.55016414      23.82996795  F       0.00000000       0.00000000       0.00000000
Mg       4.86282903       5.26696710      24.24964481  F       0.00000000       0.00000000       0.00000000
Mg       7.87408533       4.82439194      24.38848238  F       0.00000000       0.00000000       0.00000000
Mg      10.93729305       4.72711925      23.90973299  F       0.00000000       0.00000000       0.00000000
Mg       2.93460366       7.43970087      23.82708440  F       0.00000000       0.00000000       0.00000000
Mg       6.52377012       7.82075211      23.46216890  F       0.00000000       0.00000000       0.00000000
Mg       9.67135359       7.79864442      24.25679102  F       0.00000000       0.00000000       0.00000000
Mg      12.83940448       7.22537190      23.57780887  F       0.00000000       0.00000000       0.00000000
Mg       7.11182573      11.12527639      28.09808299  T       0.46626132      -0.92957909       0.31261152
Mg      20.87064355       2.89318737      24.36590288  T      -0.10624041       1.57344157       0.19762629
Cl       6.82217426       9.68662355      30.04907280  T       1.03549187      -1.30196905      -1.55028276
Cl      -0.42490722      10.91482768      26.53469901  T      -0.10716694       1.39659686      -0.20419660
Cl      -4.57911727       4.39535871      26.71326407  T       1.65413965      -0.86420238       1.40845561
O        7.99810720      -4.43092241      26.14206165  T      -0.36182153       0.92949661      -0.76784741
C        8.69283096      -5.35020092      26.97865078  T       0.27230489       1.07412322       0.33749079
C        8.92641323      -4.65450242      28.34646842  T      -0.50300000       0.73510590       0.11842193
C        7.75913324      -3.71725350      28.48961722  T      -0.93530634       0.74020063       0.11320489
C        7.32130579      -3.43113469      27.00514091  T       0.11372315      -0.68259820      -1.22390522
H        9.70368223      -5.66268752      26.56221852  T       0.16306861      -0.06671806       0.01033457
H        8.07386543      -6.26837297      27.16440498  T      -0.32355123       0.13762180      -0.17702857
H        9.85740178      -4.04069204      28.38093038  T       0.19194250      -0.13568318      -0.05031232
H        9.02174672      -5.33188833      29.19494818  T      -0.21846285      -0.03627583      -0.09783751
H        7.92803577      -2.79968921      28.99645720  T      -0.17455757      -0.26100917      -0.09504887
H        6.94146201      -4.38377512      28.82761321  T       0.00682276       0.34872489      -0.07209865
H        7.60443833      -2.41791462      26.67462571  T       0.23578041      -0.00350357       0.18266001
H        6.22727758      -3.54217670      26.83867752  T      -0.03559841       0.06433800       0.09811029
O        5.69247834       9.19244674      35.93708240  T       0.40223259       0.55822683       0.67078623
C        5.26650812      10.48174865      35.30451893  T       0.47766417       0.38348039       0.00116332
C        6.28193100      10.70951525      34.18339142  T       0.10711807       0.17095632      -0.07805202
C        6.47071246       9.26662190      33.77306317  T      -0.66552246       0.54253813      -0.17229637
C        6.62665177       8.58883073      35.11788443  T      -0.97380685       0.79753906       0.16879940
H        5.26141949      11.34837438      35.99209783  T       0.08144248      -0.03817986      -0.26956141
H        4.20771362      10.34440519      34.87975618  T      -0.12072771       0.09085897      -0.13543303
H        7.31210314      11.06580942      34.55761008  T       0.04762885      -0.22666762      -0.18038269
H        6.57081725      13.43468702      34.20985859  T       0.17261328      -0.08965534       0.24544303
H        7.39180917       9.24350798      33.19637644  T      -0.09977033      -0.18309526      -0.03661528
H        5.63801531       8.89324259      33.08533232  T      -0.18359561       0.07951927      -0.09041849
H        7.69810092       8.57698901      35.62315924  T       0.14606398      -0.19754894      -0.08906715
H        6.36630347       7.51710183      35.02854578  T       0.28168721      -0.15120842       0.16281823
O        6.37608540       6.81128678      25.01649446  T      -1.24168788       0.68733748       0.17387344
C        5.68700467      10.71912710      26.39695121  T       1.14515962       0.01642834      -0.30262313