 Entering Gaussian System, Link 0=/CH/g16/g16
 Initial command:
 /CH/g16/l1.exe "/tmp/g16_disiloxane_2866645/Gau-2866661.inp" -scrdir="/tmp/g16_disiloxane_2866645/"
 Default is to use a total of  96 processors:
                               96 via shared-memory
                                1 via Linda
 Entering Link 1 = /CH/g16/l1.exe PID=   2866667.
  
 Copyright (c) 1988-2021, Gaussian, Inc.  All Rights Reserved.
  
 This is part of the Gaussian(R) 16 program.  It is based on
 the Gaussian(R) 09 system (copyright 2009, Gaussian, Inc.),
 the Gaussian(R) 03 system (copyright 2003, Gaussian, Inc.),
 the Gaussian(R) 98 system (copyright 1998, Gaussian, Inc.),
 the Gaussian(R) 94 system (copyright 1995, Gaussian, Inc.),
 the Gaussian 92(TM) system (copyright 1992, Gaussian, Inc.),
 the Gaussian 90(TM) system (copyright 1990, Gaussian, Inc.),
 the Gaussian 88(TM) system (copyright 1988, Gaussian, Inc.),
 the Gaussian 86(TM) system (copyright 1986, Carnegie Mellon
 University), and the Gaussian 82(TM) system (copyright 1983,
 Carnegie Mellon University). Gaussian is a federally registered
 trademark of Gaussian, Inc.
  
 This software contains proprietary and confidential information,
 including trade secrets, belonging to Gaussian, Inc.
  
 This software is provided under written license and may be
 used, copied, transmitted, or stored only in accord with that
 written license.
  
 The following legend is applicable only to US Government
 contracts under FAR:
  
                    RESTRICTED RIGHTS LEGEND
  
 Use, reproduction and disclosure by the US Government is
 subject to restrictions as set forth in subparagraphs (a)
 and (c) of the Commercial Computer Software - Restricted
 Rights clause in FAR 52.227-19.
  
 Gaussian, Inc.
 340 Quinnipiac St., Bldg. 40, Wallingford CT 06492
  
  
 ---------------------------------------------------------------
 Warning -- This program may not be used in any manner that
 competes with the business of Gaussian, Inc. or will provide
 assistance to any competitor of Gaussian, Inc.  The licensee
 of this program is prohibited from giving any competitor of
 Gaussian, Inc. access to this program.  By using this program,
 the user acknowledges that Gaussian, Inc. is engaged in the
 business of creating and licensing software in the field of
 computational chemistry and represents and warrants to the
 licensee that it is not a competitor of Gaussian, Inc. and that
 it will not use this program in any manner prohibited above.
 ---------------------------------------------------------------
  

 Cite this work as:
 Gaussian 16, Revision C.02,
 M. J. Frisch, G. W. Trucks, H. B. Schlegel, G. E. Scuseria, 
 M. A. Robb, J. R. Cheeseman, G. Scalmani, V. Barone, 
 G. A. Petersson, H. Nakatsuji, X. Li, M. Caricato, A. V. Marenich, 
 J. Bloino, B. G. Janesko, R. Gomperts, B. Mennucci, H. P. Hratchian, 
 J. V. Ortiz, A. F. Izmaylov, J. L. Sonnenberg, D. Williams-Young, 
 F. Ding, F. Lipparini, F. Egidi, J. Goings, B. Peng, A. Petrone, 
 T. Henderson, D. Ranasinghe, V. G. Zakrzewski, J. Gao, N. Rega, 
 G. Zheng, W. Liang, M. Hada, M. Ehara, K. Toyota, R. Fukuda, 
 J. Hasegawa, M. Ishida, T. Nakajima, Y. Honda, O. Kitao, H. Nakai, 
 T. Vreven, K. Throssell, J. A. Montgomery, Jr., J. E. Peralta, 
 F. Ogliaro, M. J. Bearpark, J. J. Heyd, E. N. Brothers, K. N. Kudin, 
 V. N. Staroverov, T. A. Keith, R. Kobayashi, J. Normand, 
 K. Raghavachari, A. P. Rendell, J. C. Burant, S. S. Iyengar, 
 J. Tomasi, M. Cossi, J. M. Millam, M. Klene, C. Adamo, R. Cammi, 
 J. W. Ochterski, R. L. Martin, K. Morokuma, O. Farkas, 
 J. B. Foresman, and D. J. Fox, Gaussian, Inc., Wallingford CT, 2019.
 
 ******************************************
 Gaussian 16:  ES64L-G16RevC.02  7-Dec-2021
                24-Jun-2026 
 ******************************************
 %chk=disiloxane.chk
 %nprocshared=8
 Will use up to    8 processors via shared memory.
 %mem=14GB
 ----------------------------------------------------------------------
 #p B3LYP/def2SVP EmpiricalDispersion=GD3BJ opt SCRF=(SMD,Solvent=Tetra
 hydrofuran) int=ultrafine
 ----------------------------------------------------------------------
 1/18=20,19=15,26=6,38=1/1,3;
 2/9=110,12=2,17=6,18=5,40=1/2;
 3/5=43,7=101,11=2,25=1,30=1,70=32201,71=1,72=20,74=-5,75=-5,124=41/1,2,3;
 4//1;
 5/5=2,38=5,53=20/2;
 6/7=2,8=2,9=2,10=2,28=1/1;
 7//1,2,3,16;
 1/18=20,19=15,26=6/3(2);
 2/9=110/2;
 99//99;
 2/9=110/2;
 3/5=43,7=101,11=2,25=1,30=1,70=32205,71=1,72=20,74=-5,75=-5,124=41/1,2,3;
 4/5=5,16=3,69=1/1;
 5/5=2,38=5,53=20/2;
 7//1,2,3,16;
 1/18=20,19=15,26=6/3(-5);
 2/9=110/2;
 6/7=2,8=2,9=2,10=2,19=2,28=1/1;
 99/9=1/99;
 Leave Link    1 at Wed Jun 24 00:00:40 2026, MaxMem=  1879048192 cpu:               4.3 elap:               0.1
 (Enter /CH/g16/l101.exe)
 ----------
 disiloxane
 ----------
 Symbolic Z-matrix:
 Charge =  0 Multiplicity = 1
 O                     0.        0.        0. 
 Si                    0.        1.48      0.8 
 Si                    0.       -1.48      0.8 
 H                     1.18      1.55      1.62 
 H                    -1.18      1.55      1.62 
 H                     0.        2.55     -0.18 
 H                     1.18     -1.55      1.62 
 H                    -1.18     -1.55      1.62 
 H                     0.       -2.55     -0.18 
 
 ITRead=  0  0  0  0  0  0  0  0  0
 MicOpt= -1 -1 -1 -1 -1 -1 -1 -1 -1
 NAtoms=      9 NQM=        9 NQMF=       0 NMMI=      0 NMMIF=      0
                NMic=       0 NMicF=      0.
                    Isotopes and Nuclear Properties:
 (Nuclear quadrupole moments (NQMom) in fm**2, nuclear magnetic moments (NMagM)
  in nuclear magnetons)

  Atom         1           2           3           4           5           6           7           8           9
 IAtWgt=          16          28          28           1           1           1           1           1           1
 AtmWgt=  15.9949146  27.9769284  27.9769284   1.0078250   1.0078250   1.0078250   1.0078250   1.0078250   1.0078250
 NucSpn=           0           0           0           1           1           1           1           1           1
 AtZEff=  -0.0000000  -0.0000000  -0.0000000  -0.0000000  -0.0000000  -0.0000000  -0.0000000  -0.0000000  -0.0000000
 NQMom=    0.0000000   0.0000000   0.0000000   0.0000000   0.0000000   0.0000000   0.0000000   0.0000000   0.0000000
 NMagM=    0.0000000   0.0000000   0.0000000   2.7928460   2.7928460   2.7928460   2.7928460   2.7928460   2.7928460
 AtZNuc=   8.0000000  14.0000000  14.0000000   1.0000000   1.0000000   1.0000000   1.0000000   1.0000000   1.0000000
 Leave Link  101 at Wed Jun 24 00:00:41 2026, MaxMem=  1879048192 cpu:               0.4 elap:               0.4
 (Enter /CH/g16/l103.exe)

 GradGradGradGradGradGradGradGradGradGradGradGradGradGradGradGradGradGrad
 Berny optimization.
 Initialization pass.
                           ----------------------------
                           !    Initial Parameters    !
                           ! (Angstroms and Degrees)  !
 --------------------------                            --------------------------
 ! Name  Definition              Value          Derivative Info.                !
 --------------------------------------------------------------------------------
 ! R1    R(1,2)                  1.6824         estimate D2E/DX2                !
 ! R2    R(1,3)                  1.6824         estimate D2E/DX2                !
 ! R3    R(2,4)                  1.4386         estimate D2E/DX2                !
 ! R4    R(2,5)                  1.4386         estimate D2E/DX2                !
 ! R5    R(2,6)                  1.451          estimate D2E/DX2                !
 ! R6    R(3,7)                  1.4386         estimate D2E/DX2                !
 ! R7    R(3,8)                  1.4386         estimate D2E/DX2                !
 ! R8    R(3,9)                  1.451          estimate D2E/DX2                !
 ! A1    A(2,1,3)              123.214          estimate D2E/DX2                !
 ! A2    A(1,2,4)              108.2908         estimate D2E/DX2                !
 ! A3    A(1,2,5)              108.2908         estimate D2E/DX2                !
 ! A4    A(1,2,6)              109.1208         estimate D2E/DX2                !
 ! A5    A(4,2,5)              110.2129         estimate D2E/DX2                !
 ! A6    A(4,2,6)              110.4317         estimate D2E/DX2                !
 ! A7    A(5,2,6)              110.4317         estimate D2E/DX2                !
 ! A8    A(1,3,7)              108.2908         estimate D2E/DX2                !
 ! A9    A(1,3,8)              108.2908         estimate D2E/DX2                !
 ! A10   A(1,3,9)              109.1208         estimate D2E/DX2                !
 ! A11   A(7,3,8)              110.2129         estimate D2E/DX2                !
 ! A12   A(7,3,9)              110.4317         estimate D2E/DX2                !
 ! A13   A(8,3,9)              110.4317         estimate D2E/DX2                !
 ! D1    D(3,1,2,4)             59.753          estimate D2E/DX2                !
 ! D2    D(3,1,2,5)            -59.753          estimate D2E/DX2                !
 ! D3    D(3,1,2,6)            180.0            estimate D2E/DX2                !
 ! D4    D(2,1,3,7)            -59.753          estimate D2E/DX2                !
 ! D5    D(2,1,3,8)             59.753          estimate D2E/DX2                !
 ! D6    D(2,1,3,9)            180.0            estimate D2E/DX2                !
 --------------------------------------------------------------------------------
 Trust Radius=3.00D-01 FncErr=5.00D-06 GrdErr=5.00D-06 EigMax=2.50D+02 EigMin=1.00D-04
 Number of steps in this run=     37 maximum allowed number of steps=    100.
 GradGradGradGradGradGradGradGradGradGradGradGradGradGradGradGradGradGrad

 Leave Link  103 at Wed Jun 24 00:00:41 2026, MaxMem=  1879048192 cpu:               0.0 elap:               0.0
 (Enter /CH/g16/l202.exe)
                          Input orientation:                          
 ---------------------------------------------------------------------
 Center     Atomic      Atomic             Coordinates (Angstroms)
 Number     Number       Type             X           Y           Z
 ---------------------------------------------------------------------
      1          8           0        0.000000    0.000000    0.000000
      2         14           0        0.000000    1.480000    0.800000
      3         14           0        0.000000   -1.480000    0.800000
      4          1           0        1.180000    1.550000    1.620000
      5          1           0       -1.180000    1.550000    1.620000
      6          1           0        0.000000    2.550000   -0.180000
      7          1           0        1.180000   -1.550000    1.620000
      8          1           0       -1.180000   -1.550000    1.620000
      9          1           0        0.000000   -2.550000   -0.180000
 ---------------------------------------------------------------------
                    Distance matrix (angstroms):
                    1          2          3          4          5
     1  O    0.000000
     2  Si   1.682379   0.000000
     3  Si   1.682379   2.960000   0.000000
     4  H    2.533634   1.438645   3.353461   0.000000
     5  H    2.533634   1.438645   3.353461   2.360000   0.000000
     6  H    2.556345   1.450965   4.147445   2.373268   2.373268
     7  H    2.533634   3.353461   1.438645   3.100000   3.896101
     8  H    2.533634   3.353461   1.438645   3.896101   3.100000
     9  H    2.556345   4.147445   1.450965   4.630594   4.630594
                    6          7          8          9
     6  H    0.000000
     7  H    4.630594   0.000000
     8  H    4.630594   2.360000   0.000000
     9  H    5.100000   2.373268   2.373268   0.000000
 Stoichiometry    H6OSi2
 Framework group  C2V[C2(O),SGV(H2Si2),X(H4)]
 Deg. of freedom     7
 Full point group                 C2V     NOp   4
 Largest Abelian subgroup         C2V     NOp   4
 Largest concise Abelian subgroup C2V     NOp   4
                         Standard orientation:                         
 ---------------------------------------------------------------------
 Center     Atomic      Atomic             Coordinates (Angstroms)
 Number     Number       Type             X           Y           Z
 ---------------------------------------------------------------------
      1          8           0        0.000000   -0.000000    0.679048
      2         14           0       -0.000000    1.480000   -0.120952
      3         14           0       -0.000000   -1.480000   -0.120952
      4          1           0       -1.180000    1.550000   -0.940952
      5          1           0        1.180000    1.550000   -0.940952
      6          1           0        0.000000    2.550000    0.859048
      7          1           0       -1.180000   -1.550000   -0.940952
      8          1           0        1.180000   -1.550000   -0.940952
      9          1           0       -0.000000   -2.550000    0.859048
 ---------------------------------------------------------------------
 Rotational constants (GHZ):          26.8662475           3.3476241           3.1874848
 Leave Link  202 at Wed Jun 24 00:00:41 2026, MaxMem=  1879048192 cpu:               0.0 elap:               0.0
 (Enter /CH/g16/l301.exe)
 Standard basis: def2SVP (5D, 7F)
 Ernie: Thresh=  0.10000D-02 Tol=  0.10000D-05 Strict=F.
 There are    31 symmetry adapted cartesian basis functions of A1  symmetry.
 There are    12 symmetry adapted cartesian basis functions of A2  symmetry.
 There are    14 symmetry adapted cartesian basis functions of B1  symmetry.
 There are    26 symmetry adapted cartesian basis functions of B2  symmetry.
 There are    29 symmetry adapted basis functions of A1  symmetry.
 There are    12 symmetry adapted basis functions of A2  symmetry.
 There are    14 symmetry adapted basis functions of B1  symmetry.
 There are    25 symmetry adapted basis functions of B2  symmetry.
    80 basis functions,   141 primitive gaussians,    83 cartesian basis functions
    21 alpha electrons       21 beta electrons
       nuclear repulsion energy       161.2268630755 Hartrees.
 IExCor=  402 DFT=T Ex+Corr=B3LYP ExCW=0 ScaHFX=  0.200000
 ScaDFX=  0.800000  0.720000  1.000000  0.810000 ScalE2=  1.000000  1.000000
 IRadAn=      5 IRanWt=     -1 IRanGd=            0 ICorTp=0 IEmpDi=141
 NAtoms=    9 NActive=    9 NUniq=    4 SFac= 4.00D+00 NAtFMM=   60 NAOKFM=F Big=F
 Integral buffers will be    131072 words long.
 Raffenetti 2 integral format.
 Two-electron integral symmetry is turned on.
 R6Disp:  Grimme-D3(BJ) Dispersion energy=       -0.0111896047 Hartrees.
 Nuclear repulsion after empirical dispersion term =      161.2156734708 Hartrees.
 ------------------------------------------------------------------------------
 Polarizable Continuum Model (PCM)
 =================================
 Model                : PCM.
 Atomic radii         : SMD-Coulomb.
 Polarization charges : Total charges.
 Charge compensation  : None.
 Solution method      : On-the-fly selection.
 Cavity type          : VdW (van der Waals Surface) (Alpha=1.000).
 Cavity algorithm     : GePol (No added spheres)
                        Default sphere list used, NSphG=    9.
                        Lebedev-Laikov grids with approx.  5.0 points / Ang**2.
                        Smoothing algorithm: York/Karplus (Gamma=1.0000).
                        Polarization charges: spherical gaussians, with
                                              point-specific exponents (IZeta= 3).
                        Self-potential: point-specific (ISelfS= 7).
                        Self-field    : sphere-specific E.n sum rule (ISelfD= 2).
 1st derivatives      : Analytical E(r).r(x)/FMM algorithm (CHGder, D1EAlg=3).
                        Cavity 1st derivative terms included.
 Solvent              : TetraHydroFuran, Eps=   7.425700 Eps(inf)=   1.974025
 ------------------------------------------------------------------------------
 Spheres list:
 ISph  on   Nord     Re0    Alpha      Xe            Ye            Ze
    1   O      1    2.2940  1.000      0.000000      0.000000      0.679048
    2  Si      2    2.4700  1.000     -0.000000      1.480000     -0.120952
    3  Si      3    2.4700  1.000     -0.000000     -1.480000     -0.120952
    4   H      4    1.2000  1.000     -1.180000      1.550000     -0.940952
    5   H      5    1.2000  1.000      1.180000      1.550000     -0.940952
    6   H      6    1.2000  1.000      0.000000      2.550000      0.859048
    7   H      7    1.2000  1.000     -1.180000     -1.550000     -0.940952
    8   H      8    1.2000  1.000      1.180000     -1.550000     -0.940952
    9   H      9    1.2000  1.000     -0.000000     -2.550000      0.859048
 ------------------------------------------------------------------------------
 GePol: Number of generator spheres                  =       9
 GePol: Total number of spheres                      =       9
 GePol: Number of exposed spheres                    =       9 (100.00%)
 GePol: Number of points                             =     933
 GePol: Average weight of points                     =       0.14
 GePol: Minimum weight of points                     =   0.17D-05
 GePol: Maximum weight of points                     =    0.19536
 GePol: Number of points with low weight             =      30
 GePol: Fraction of low-weight points (<1% of avg)   =       3.22%
 GePol: Cavity surface area                          =    127.623 Ang**2
 GePol: Cavity volume                                =    121.865 Ang**3
 ------------------------------------------------------------------------------
 Atomic radii for non-electrostatic terms: SMD-CDS.
 ------------------------------------------------------------------------------
 PCM non-electrostatic energy =        -0.0003396274 Hartrees.
 Nuclear repulsion after PCM non-electrostatic terms =      161.2153338434 Hartrees.
 Leave Link  301 at Wed Jun 24 00:00:41 2026, MaxMem=  1879048192 cpu:               0.0 elap:               0.0
 (Enter /CH/g16/l302.exe)
 NPDir=0 NMtPBC=     1 NCelOv=     1 NCel=       1 NClECP=     1 NCelD=      1
         NCelK=      1 NCelE2=     1 NClLst=     1 CellRange=     0.0.
 One-electron integrals computed using PRISM.
 One-electron integral symmetry used in STVInt
   4 Symmetry operations used in ECPInt.
 ECPInt:  NShTT=     820 NPrTT=    3158 LenC2=     820 LenP2D=    2664.
 LDataN:  DoStor=T MaxTD1= 4 Len=   56
 NBasis=    80 RedAO= T EigKep=  7.51D-03  NBF=    29    12    14    25
 NBsUse=    80 1.00D-06 EigRej= -1.00D+00 NBFU=    29    12    14    25
 Precomputing XC quadrature grid using
 IXCGrd= 4 IRadAn=           5 IRanWt=          -1 IRanGd=           0 AccXCQ= 0.00D+00.
 Generated NRdTot=       0 NPtTot=           0 NUsed=           0 NTot=          32
 NSgBfM=    83    83    83    83    83 MxSgAt=     9 MxSgA2=     9.
 Leave Link  302 at Wed Jun 24 00:00:41 2026, MaxMem=  1879048192 cpu:               0.3 elap:               0.1
 (Enter /CH/g16/l303.exe)
 DipDrv:  MaxL=1.
 Leave Link  303 at Wed Jun 24 00:00:41 2026, MaxMem=  1879048192 cpu:               0.0 elap:               0.0
 (Enter /CH/g16/l401.exe)
 ExpMin= 7.80D-02 ExpMax= 6.90D+03 ExpMxC= 1.04D+03 IAcc=3 IRadAn=         5 AccDes= 0.00D+00
 Harris functional with IExCor=  402 and IRadAn=       5 diagonalized for initial guess.
 HarFok:  IExCor=  402 AccDes= 0.00D+00 IRadAn=         5 IDoV= 1 UseB2=F ITyADJ=14
 ICtDFT=  3500011 ScaDFX=  1.000000  1.000000  1.000000  1.000000
 FoFCou: FMM=F IPFlag=           0 FMFlag=      100000 FMFlg1=           0
         NFxFlg=           0 DoJE=T BraDBF=F KetDBF=T FulRan=T
         wScrn=  0.000000 ICntrl=       500 IOpCl=  0 I1Cent=   200000004 NGrid=           0
         NMat0=    1 NMatS0=      1 NMatT0=    0 NMatD0=    1 NMtDS0=    0 NMtDT0=    0
 Petite list used in FoFCou.
 Harris En= -657.616741311133    
 JPrj=0 DoOrth=F DoCkMO=F.
 Initial guess orbital symmetries:
       Occupied  (A1) (B2) (A1) (B2) (A1) (A2) (B1) (B2) (A1) (A1)
                 (B2) (A1) (B2) (A1) (B2) (A1) (B1) (A2) (B2) (A1)
                 (B1)
       Virtual   (A1) (A1) (B2) (A2) (B1) (A1) (B2) (B2) (A1) (B2)
                 (B1) (A1) (A2) (B2) (A1) (B2) (B1) (A2) (A1) (B1)
                 (A1) (B2) (A2) (A1) (B2) (B2) (A1) (A1) (B1) (B2)
                 (B2) (A2) (B1) (A1) (B2) (A1) (B1) (A2) (A2) (A1)
                 (B1) (B2) (B2) (A1) (B1) (A2) (A1) (B2) (A1) (B2)
                 (B1) (A1) (B2) (A2) (B1) (A1) (A2) (A1) (B2)
 The electronic state of the initial guess is 1-A1.
 Leave Link  401 at Wed Jun 24 00:00:41 2026, MaxMem=  1879048192 cpu:               0.6 elap:               0.1
 (Enter /CH/g16/l502.exe)
 Keep R1 ints in memory in symmetry-blocked form, NReq=12508855.
 FoFCou: FMM=F IPFlag=           0 FMFlag=           0 FMFlg1=           0
         NFxFlg=           0 DoJE=F BraDBF=F KetDBF=F FulRan=T
         wScrn=  0.000000 ICntrl=       600 IOpCl=  0 I1Cent=           0 NGrid=           0
         NMat0=    1 NMatS0=   3240 NMatT0=    0 NMatD0=    1 NMtDS0=    0 NMtDT0=    0
 Petite list used in FoFCou.
 Closed shell SCF:
 Using DIIS extrapolation, IDIIS=  1040.
 NGot=  1879048192 LenX=  1877686006 LenY=  1877678676
 Requested convergence on RMS density matrix=1.00D-08 within 128 cycles.
 Requested convergence on MAX density matrix=1.00D-06.
 Requested convergence on             energy=1.00D-06.
 No special actions if energy rises.

 Cycle   1  Pass 1  IDiag  1:
 Inv3:  Mode=1 IEnd=     2611467.
 Iteration    1 A*A^-1 deviation from unit magnitude is 2.89D-15 for     19.
 Iteration    1 A*A^-1 deviation from orthogonality  is 1.62D-15 for    338     28.
 Iteration    1 A^-1*A deviation from unit magnitude is 2.78D-15 for    221.
 Iteration    1 A^-1*A deviation from orthogonality  is 2.36D-15 for    910    106.
 E= -657.591747680748    
 DIIS: error= 4.23D-02 at cycle   1 NSaved=   1.
 NSaved= 1 IEnMin= 1 EnMin= -657.591747680748     IErMin= 1 ErrMin= 4.23D-02
 ErrMax= 4.23D-02  0.00D+00 EMaxC= 1.00D-01 BMatC= 1.13D-01 BMatP= 1.13D-01
 IDIUse=3 WtCom= 5.77D-01 WtEn= 4.23D-01
 Coeff-Com:  0.100D+01
 Coeff-En:   0.100D+01
 Coeff:      0.100D+01
 Gap=     0.257 Goal=   None    Shift=    0.000
 GapD=    0.257 DampG=1.000 DampE=0.500 DampFc=0.5000 IDamp=-1.
 Damping current iteration by 5.00D-01
 RMSDP=9.12D-03 MaxDP=1.73D-01              OVMax= 2.00D-01

 Cycle   2  Pass 1  IDiag  1:
 E= -657.606804781408     Delta-E=       -0.015057100660 Rises=F Damp=T
 DIIS: error= 2.14D-02 at cycle   2 NSaved=   2.
 NSaved= 2 IEnMin= 2 EnMin= -657.606804781408     IErMin= 2 ErrMin= 2.14D-02
 ErrMax= 2.14D-02  0.00D+00 EMaxC= 1.00D-01 BMatC= 2.04D-02 BMatP= 1.13D-01
 IDIUse=3 WtCom= 7.86D-01 WtEn= 2.14D-01
 Coeff-Com:  0.255D+00 0.745D+00
 Coeff-En:   0.417D+00 0.583D+00
 Coeff:      0.290D+00 0.710D+00
 Gap=     0.321 Goal=   None    Shift=    0.000
 RMSDP=2.57D-03 MaxDP=3.14D-02 DE=-1.51D-02 OVMax= 1.20D-01

 Cycle   3  Pass 1  IDiag  1:
 E= -657.679857337409     Delta-E=       -0.073052556001 Rises=F Damp=F
 DIIS: error= 5.48D-03 at cycle   3 NSaved=   3.
 NSaved= 3 IEnMin= 3 EnMin= -657.679857337409     IErMin= 3 ErrMin= 5.48D-03
 ErrMax= 5.48D-03  0.00D+00 EMaxC= 1.00D-01 BMatC= 1.47D-03 BMatP= 2.04D-02
 IDIUse=3 WtCom= 9.45D-01 WtEn= 5.48D-02
 Coeff-Com:  0.101D-01 0.214D+00 0.776D+00
 Coeff-En:   0.000D+00 0.000D+00 0.100D+01
 Coeff:      0.956D-02 0.202D+00 0.788D+00
 Gap=     0.307 Goal=   None    Shift=    0.000
 RMSDP=6.19D-04 MaxDP=7.58D-03 DE=-7.31D-02 OVMax= 1.37D-02

 Cycle   4  Pass 1  IDiag  1:
 E= -657.681454707937     Delta-E=       -0.001597370528 Rises=F Damp=F
 DIIS: error= 5.41D-04 at cycle   4 NSaved=   4.
 NSaved= 4 IEnMin= 4 EnMin= -657.681454707937     IErMin= 4 ErrMin= 5.41D-04
 ErrMax= 5.41D-04  0.00D+00 EMaxC= 1.00D-01 BMatC= 2.52D-05 BMatP= 1.47D-03
 IDIUse=3 WtCom= 9.95D-01 WtEn= 5.41D-03
 Coeff-Com:  0.323D-03 0.271D-01 0.177D+00 0.796D+00
 Coeff-En:   0.000D+00 0.000D+00 0.000D+00 0.100D+01
 Coeff:      0.321D-03 0.269D-01 0.176D+00 0.797D+00
 Gap=     0.306 Goal=   None    Shift=    0.000
 RMSDP=1.07D-04 MaxDP=2.41D-03 DE=-1.60D-03 OVMax= 1.54D-03

 Cycle   5  Pass 1  IDiag  1:
 E= -657.681482912654     Delta-E=       -0.000028204717 Rises=F Damp=F
 DIIS: error= 9.76D-05 at cycle   5 NSaved=   5.
 NSaved= 5 IEnMin= 5 EnMin= -657.681482912654     IErMin= 5 ErrMin= 9.76D-05
 ErrMax= 9.76D-05  0.00D+00 EMaxC= 1.00D-01 BMatC= 7.87D-07 BMatP= 2.52D-05
 IDIUse=1 WtCom= 1.00D+00 WtEn= 0.00D+00
 Coeff-Com: -0.800D-04-0.155D-02 0.991D-02 0.192D+00 0.800D+00
 Coeff:     -0.800D-04-0.155D-02 0.991D-02 0.192D+00 0.800D+00
 Gap=     0.306 Goal=   None    Shift=    0.000
 RMSDP=1.92D-05 MaxDP=5.54D-04 DE=-2.82D-05 OVMax= 2.94D-04

 Cycle   6  Pass 1  IDiag  1:
 E= -657.681483990179     Delta-E=       -0.000001077525 Rises=F Damp=F
 DIIS: error= 8.77D-06 at cycle   6 NSaved=   6.
 NSaved= 6 IEnMin= 6 EnMin= -657.681483990179     IErMin= 6 ErrMin= 8.77D-06
 ErrMax= 8.77D-06  0.00D+00 EMaxC= 1.00D-01 BMatC= 8.33D-09 BMatP= 7.87D-07
 IDIUse=1 WtCom= 1.00D+00 WtEn= 0.00D+00
 Coeff-Com: -0.832D-04-0.712D-03-0.144D-02 0.176D-01 0.137D+00 0.848D+00
 Coeff:     -0.832D-04-0.712D-03-0.144D-02 0.176D-01 0.137D+00 0.848D+00
 Gap=     0.306 Goal=   None    Shift=    0.000
 RMSDP=1.38D-06 MaxDP=2.03D-05 DE=-1.08D-06 OVMax= 3.11D-05

 Cycle   7  Pass 1  IDiag  1:
 E= -657.681484001002     Delta-E=       -0.000000010823 Rises=F Damp=F
 DIIS: error= 1.03D-06 at cycle   7 NSaved=   7.
 NSaved= 7 IEnMin= 7 EnMin= -657.681484001002     IErMin= 7 ErrMin= 1.03D-06
 ErrMax= 1.03D-06  0.00D+00 EMaxC= 1.00D-01 BMatC= 6.37D-11 BMatP= 8.33D-09
 IDIUse=1 WtCom= 1.00D+00 WtEn= 0.00D+00
 Coeff-Com: -0.964D-06 0.929D-05-0.880D-04-0.234D-02-0.365D-02 0.357D-01
 Coeff-Com:  0.970D+00
 Coeff:     -0.964D-06 0.929D-05-0.880D-04-0.234D-02-0.365D-02 0.357D-01
 Coeff:      0.970D+00
 Gap=     0.306 Goal=   None    Shift=    0.000
 RMSDP=2.22D-07 MaxDP=2.97D-06 DE=-1.08D-08 OVMax= 5.03D-06

 Cycle   8  Pass 1  IDiag  1:
 E= -657.681484001108     Delta-E=       -0.000000000106 Rises=F Damp=F
 DIIS: error= 2.39D-07 at cycle   8 NSaved=   8.
 NSaved= 8 IEnMin= 8 EnMin= -657.681484001108     IErMin= 8 ErrMin= 2.39D-07
 ErrMax= 2.39D-07  0.00D+00 EMaxC= 1.00D-01 BMatC= 4.34D-12 BMatP= 6.37D-11
 IDIUse=1 WtCom= 1.00D+00 WtEn= 0.00D+00
 Coeff-Com: -0.198D-05 0.121D-04-0.967D-05-0.582D-03-0.186D-02-0.355D-02
 Coeff-Com:  0.158D+00 0.848D+00
 Coeff:     -0.198D-05 0.121D-04-0.967D-05-0.582D-03-0.186D-02-0.355D-02
 Coeff:      0.158D+00 0.848D+00
 Gap=     0.306 Goal=   None    Shift=    0.000
 RMSDP=2.50D-08 MaxDP=4.88D-07 DE=-1.06D-10 OVMax= 6.22D-07

 Cycle   9  Pass 1  IDiag  1:
 E= -657.681484001108     Delta-E=        0.000000000000 Rises=F Damp=F
 DIIS: error= 5.33D-08 at cycle   9 NSaved=   9.
 NSaved= 9 IEnMin= 8 EnMin= -657.681484001108     IErMin= 9 ErrMin= 5.33D-08
 ErrMax= 5.33D-08  0.00D+00 EMaxC= 1.00D-01 BMatC= 1.84D-13 BMatP= 4.34D-12
 IDIUse=1 WtCom= 1.00D+00 WtEn= 0.00D+00
 Coeff-Com: -0.810D-06 0.142D-05-0.414D-05-0.167D-04-0.139D-03-0.103D-02
 Coeff-Com: -0.207D-02 0.965D-01 0.907D+00
 Coeff:     -0.810D-06 0.142D-05-0.414D-05-0.167D-04-0.139D-03-0.103D-02
 Coeff:     -0.207D-02 0.965D-01 0.907D+00
 Gap=     0.306 Goal=   None    Shift=    0.000
 RMSDP=5.41D-09 MaxDP=9.90D-08 DE= 2.27D-13 OVMax= 1.48D-07

 Error on total polarization charges =  0.02220
 SCF Done:  E(RB3LYP) =  -657.681484001     A.U. after    9 cycles
            NFock=  9  Conv=0.54D-08     -V/T= 2.0037
 KE= 6.552752134430D+02 PE=-1.885434237841D+03 EE= 4.112622065533D+02
 SMD-CDS (non-electrostatic) energy       (kcal/mol) =      -0.21
 (included in total energy above)
 Leave Link  502 at Wed Jun 24 00:00:42 2026, MaxMem=  1879048192 cpu:               7.2 elap:               1.0
 (Enter /CH/g16/l601.exe)
 Copying SCF densities to generalized density rwf, IOpCl= 0 IROHF=0.

 **********************************************************************

            Population analysis using the SCF Density.

 **********************************************************************

 Orbital symmetries:
       Occupied  (A1) (B2) (A1) (B2) (A1) (A1) (B2) (B2) (A1) (A2)
                 (B1) (A1) (B2) (A1) (B2) (B1) (A1) (A2) (B2) (A1)
                 (B1)
       Virtual   (A1) (A1) (B2) (A2) (B1) (A1) (B2) (B2) (A1) (B2)
                 (B1) (A1) (A2) (B2) (A1) (B2) (B1) (A2) (A1) (B1)
                 (B2) (A1) (A2) (A1) (B2) (B2) (A1) (A1) (B1) (B2)
                 (B2) (A2) (B1) (A1) (B2) (A1) (B1) (A2) (A2) (A1)
                 (B1) (B2) (B2) (A1) (B1) (A2) (A1) (B2) (A1) (B2)
                 (B1) (A1) (B2) (A2) (B1) (A1) (A2) (A1) (B2)
 The electronic state is 1-A1.
 Alpha  occ. eigenvalues --  -66.12962 -66.12961 -19.12612  -5.29832  -5.29831
 Alpha  occ. eigenvalues --   -3.66162  -3.66159  -3.65916  -3.65915  -3.65902
 Alpha  occ. eigenvalues --   -3.65902  -0.96734  -0.57416  -0.52108  -0.42161
 Alpha  occ. eigenvalues --   -0.40637  -0.40528  -0.35061  -0.34788  -0.31835
 Alpha  occ. eigenvalues --   -0.30246
 Alpha virt. eigenvalues --    0.00353   0.05789   0.06723   0.07752   0.09730
 Alpha virt. eigenvalues --    0.09932   0.11567   0.13579   0.20676   0.26159
 Alpha virt. eigenvalues --    0.28400   0.28964   0.32419   0.35416   0.39423
 Alpha virt. eigenvalues --    0.40540   0.44233   0.45358   0.47931   0.51817
 Alpha virt. eigenvalues --    0.53739   0.54525   0.56435   0.58833   0.61200
 Alpha virt. eigenvalues --    0.65342   0.85425   0.90437   0.91914   0.92651
 Alpha virt. eigenvalues --    0.95384   0.97436   1.10759   1.13023   1.26890
 Alpha virt. eigenvalues --    1.31563   1.36470   1.36513   1.48272   1.52874
 Alpha virt. eigenvalues --    1.58296   1.61731   1.68356   1.70312   1.73069
 Alpha virt. eigenvalues --    1.76338   1.78569   1.81102   2.01311   2.03852
 Alpha virt. eigenvalues --    2.19843   2.21951   2.23548   2.24434   2.71411
 Alpha virt. eigenvalues --    2.72406   2.74556   3.05951   3.11408
          Condensed to atoms (all electrons):
               1          2          3          4          5          6
     1  O    7.947586   0.371809   0.371809  -0.019574  -0.019574  -0.014229
     2  Si   0.371809  11.878639  -0.033793   0.394884   0.394884   0.373175
     3  Si   0.371809  -0.033793  11.878639  -0.004816  -0.004816   0.003005
     4  H   -0.019574   0.394884  -0.004816   0.795763  -0.033875  -0.021186
     5  H   -0.019574   0.394884  -0.004816  -0.033875   0.795763  -0.021186
     6  H   -0.014229   0.373175   0.003005  -0.021186  -0.021186   0.785289
     7  H   -0.019574  -0.004816   0.394884   0.005149  -0.001217  -0.000096
     8  H   -0.019574  -0.004816   0.394884  -0.001217   0.005149  -0.000096
     9  H   -0.014229   0.003005   0.373175  -0.000096  -0.000096   0.000063
               7          8          9
     1  O   -0.019574  -0.019574  -0.014229
     2  Si  -0.004816  -0.004816   0.003005
     3  Si   0.394884   0.394884   0.373175
     4  H    0.005149  -0.001217  -0.000096
     5  H   -0.001217   0.005149  -0.000096
     6  H   -0.000096  -0.000096   0.000063
     7  H    0.795763  -0.033875  -0.021186
     8  H   -0.033875   0.795763  -0.021186
     9  H   -0.021186  -0.021186   0.785289
 Mulliken charges:
               1
     1  O   -0.584450
     2  Si   0.627029
     3  Si   0.627029
     4  H   -0.115032
     5  H   -0.115032
     6  H   -0.104739
     7  H   -0.115032
     8  H   -0.115032
     9  H   -0.104739
 Sum of Mulliken charges =   0.00000
 Mulliken charges with hydrogens summed into heavy atoms:
               1
     1  O   -0.584450
     2  Si   0.292225
     3  Si   0.292225
 Electronic spatial extent (au):  <R**2>=            430.2773
 Charge=             -0.0000 electrons
 Dipole moment (field-independent basis, Debye):
    X=             -0.0000    Y=              0.0000    Z=             -0.9118  Tot=              0.9118
 Quadrupole moment (field-independent basis, Debye-Ang):
   XX=            -35.8207   YY=            -32.5487   ZZ=            -36.6198
   XY=              0.0000   XZ=             -0.0000   YZ=             -0.0000
 Traceless Quadrupole moment (field-independent basis, Debye-Ang):
   XX=             -0.8243   YY=              2.4477   ZZ=             -1.6233
   XY=              0.0000   XZ=             -0.0000   YZ=             -0.0000
 Octapole moment (field-independent basis, Debye-Ang**2):
  XXX=              0.0000  YYY=              0.0000  ZZZ=              3.5398  XYY=             -0.0000
  XXY=             -0.0000  XXZ=              4.2124  XZZ=              0.0000  YZZ=             -0.0000
  YYZ=             -1.4233  XYZ=              0.0000
 Hexadecapole moment (field-independent basis, Debye-Ang**3):
 XXXX=            -82.1206 YYYY=           -481.0836 ZZZZ=            -95.4701 XXXY=             -0.0000
 XXXZ=             -0.0000 YYYX=             -0.0000 YYYZ=             -0.0000 ZZZX=             -0.0000
 ZZZY=             -0.0000 XXYY=            -98.3227 XXZZ=            -30.4923 YYZZ=            -99.3223
 XXYZ=              0.0000 YYXZ=              0.0000 ZZXY=             -0.0000
 N-N= 1.612153338434D+02 E-N=-1.885434234310D+03  KE= 6.552752134430D+02
 Symmetry A1   KE= 3.312163608493D+02
 Symmetry A2   KE= 2.611570874948D+01
 Symmetry B1   KE= 3.020961957794D+01
 Symmetry B2   KE= 2.677335242663D+02
 No NMR shielding tensors so no spin-rotation constants.
 Leave Link  601 at Wed Jun 24 00:00:42 2026, MaxMem=  1879048192 cpu:               0.3 elap:               0.1
 (Enter /CH/g16/l701.exe)
 ... and contract with generalized density number  0.
 Compute integral first derivatives.
 R6Disp: Adding Grimme-D3(BJ) dispersion energy 1st derivatives to the gradient.
   4 Symmetry operations used in ECPInt.
 ECPInt:  NShTT=     820 NPrTT=    3158 LenC2=     820 LenP2D=    2664.
 LDataN:  DoStor=T MaxTD1= 5 Len=  102
 D1PCM: PCM CHGder 1st derivatives, ID1Alg=3 FixD1E=F DoIter=F DoCFld=F I1PDM=0.
 GePol: Maximum number of non-zero 1st derivatives   =     417
 Leave Link  701 at Wed Jun 24 00:00:42 2026, MaxMem=  1879048192 cpu:               1.6 elap:               0.2
 (Enter /CH/g16/l702.exe)
 L702 exits ... SP integral derivatives will be done elsewhere.
 Leave Link  702 at Wed Jun 24 00:00:42 2026, MaxMem=  1879048192 cpu:               0.0 elap:               0.0
 (Enter /CH/g16/l703.exe)
 Integral derivatives from FoFJK, PRISM(SPDF).
 Compute integral first derivatives, UseDBF=F ICtDFT=           0.
 Calling FoFJK, ICntrl=      2127 FMM=F ISym2X=1 I1Cent= 0 IOpClX= 0 NMat=1 NMatS=1 NMatT=0.
 FoFJK:  IHMeth= 1 ICntrl=    2127 DoSepK=F KAlg= 0 I1Cent=           0 FoldK=F
 IRaf=         0 NMat=       1 IRICut=       1 DoRegI=T DoRafI=F ISym2E= 1 IDoP0=0 IntGTp=1.
 FoFCou: FMM=F IPFlag=           0 FMFlag=      100000 FMFlg1=         800
         NFxFlg=           0 DoJE=F BraDBF=F KetDBF=F FulRan=T
         wScrn=  0.000000 ICntrl=      2127 IOpCl=  0 I1Cent=           0 NGrid=           0
         NMat0=    1 NMatS0=      1 NMatT0=    0 NMatD0=    1 NMtDS0=    0 NMtDT0=    0
 Petite list used in FoFCou.
 Leave Link  703 at Wed Jun 24 00:00:42 2026, MaxMem=  1879048192 cpu:               0.8 elap:               0.1
 (Enter /CH/g16/l716.exe)
 Dipole        =-1.46043788D-16 8.88178420D-16-3.58726309D-01
 ***** Axes restored to original set *****
 -------------------------------------------------------------------
 Center     Atomic                   Forces (Hartrees/Bohr)
 Number     Number              X              Y              Z
 -------------------------------------------------------------------
      1        8           0.000000000   -0.000000000    0.004613668
      2       14           0.000000000   -0.014176820   -0.018061313
      3       14          -0.000000000    0.014176820   -0.018061313
      4        1           0.016581567    0.003079055    0.012653443
      5        1          -0.016581567    0.003079055    0.012653443
      6        1          -0.000000000    0.009661071   -0.009552408
      7        1           0.016581567   -0.003079055    0.012653443
      8        1          -0.016581567   -0.003079055    0.012653443
      9        1          -0.000000000   -0.009661071   -0.009552408
 -------------------------------------------------------------------
 Cartesian Forces:  Max     0.018061313 RMS     0.010925669
 Leave Link  716 at Wed Jun 24 00:00:42 2026, MaxMem=  1879048192 cpu:               0.0 elap:               0.0
 (Enter /CH/g16/l103.exe)

 GradGradGradGradGradGradGradGradGradGradGradGradGradGradGradGradGradGrad
 Berny optimization.
 FormGI is forming the generalized inverse of G from B-inverse, IUseBI=4.
 Internal  Forces:  Max     0.020962504 RMS     0.009647290
 Search for a local minimum.
 Step number   1 out of a maximum of   37
 All quantities printed in internal units (Hartrees-Bohrs-Radians)
 RMS Force = .96473D-02 SwitMx=.10000D-02 MixMth= 1
 Mixed Optimization -- RFO/linear search
 Second derivative matrix not updated -- first step.
 ITU=  0
     Eigenvalues ---    0.03249   0.03249   0.11194   0.11194   0.11276
     Eigenvalues ---    0.11276   0.16000   0.16000   0.16000   0.16000
     Eigenvalues ---    0.16000   0.16000   0.19216   0.19216   0.19875
     Eigenvalues ---    0.19875   0.19875   0.19875   0.25000   0.38097
     Eigenvalues ---    0.38097
 RFO step:  Lambda=-1.18718627D-02 EMin= 3.24944971D-02
 Linear search not attempted -- first point.
 Iteration  1 RMS(Cart)=  0.08598196 RMS(Int)=  0.00140561
 Iteration  2 RMS(Cart)=  0.00328413 RMS(Int)=  0.00016908
 Iteration  3 RMS(Cart)=  0.00000607 RMS(Int)=  0.00016901
 Iteration  4 RMS(Cart)=  0.00000000 RMS(Int)=  0.00016901
 ITry= 1 IFail=0 DXMaxC= 1.76D-01 DCOld= 1.00D+10 DXMaxT= 3.00D-01 DXLimC= 3.00D+00 Rises=F
 ClnCor:  largest displacement from symmetrization is 3.21D-13 for atom     5.
 Variable       Old X    -DE/DX   Delta X   Delta X   Delta X     New X
                                 (Linear)    (Quad)   (Total)
    R1        3.17924   0.00035   0.00000   0.00089   0.00089   3.18012
    R2        3.17924   0.00035   0.00000   0.00089   0.00089   3.18012
    R3        2.71865   0.02096   0.00000   0.09953   0.09953   2.81817
    R4        2.71865   0.02096   0.00000   0.09953   0.09953   2.81817
    R5        2.74193   0.01358   0.00000   0.06654   0.06654   2.80847
    R6        2.71865   0.02096   0.00000   0.09953   0.09953   2.81817
    R7        2.71865   0.02096   0.00000   0.09953   0.09953   2.81817
    R8        2.74193   0.01358   0.00000   0.06654   0.06654   2.80847
    A1        2.15049   0.01655   0.00000   0.06321   0.06321   2.21370
    A2        1.89003   0.00424   0.00000   0.02530   0.02514   1.91517
    A3        1.89003   0.00424   0.00000   0.02530   0.02514   1.91517
    A4        1.90452  -0.00283   0.00000  -0.01777  -0.01773   1.88679
    A5        1.92358  -0.00251   0.00000  -0.01191  -0.01226   1.91132
    A6        1.92740  -0.00146   0.00000  -0.00981  -0.00977   1.91763
    A7        1.92740  -0.00146   0.00000  -0.00981  -0.00977   1.91763
    A8        1.89003   0.00424   0.00000   0.02530   0.02514   1.91517
    A9        1.89003   0.00424   0.00000   0.02530   0.02514   1.91517
   A10        1.90452  -0.00283   0.00000  -0.01777  -0.01773   1.88679
   A11        1.92358  -0.00251   0.00000  -0.01191  -0.01226   1.91132
   A12        1.92740  -0.00146   0.00000  -0.00981  -0.00977   1.91763
   A13        1.92740  -0.00146   0.00000  -0.00981  -0.00977   1.91763
    D1        1.04289   0.00090   0.00000   0.00722   0.00754   1.05043
    D2       -1.04289  -0.00090   0.00000  -0.00722  -0.00754  -1.05043
    D3        3.14159   0.00000   0.00000   0.00000   0.00000   3.14159
    D4       -1.04289  -0.00090   0.00000  -0.00722  -0.00754  -1.05043
    D5        1.04289   0.00090   0.00000   0.00722   0.00754   1.05043
    D6        3.14159  -0.00000   0.00000  -0.00000   0.00000   3.14159
         Item               Value     Threshold  Converged?
 Maximum Force            0.020963     0.000450     NO 
 RMS     Force            0.009647     0.000300     NO 
 Maximum Displacement     0.175561     0.001800     NO 
 RMS     Displacement     0.088285     0.001200     NO 
 Predicted change in Energy=-6.272716D-03
 Lowest energy point so far.  Saving SCF results.
 GradGradGradGradGradGradGradGradGradGradGradGradGradGradGradGradGradGrad

 Leave Link  103 at Wed Jun 24 00:00:43 2026, MaxMem=  1879048192 cpu:               0.0 elap:               0.0
 (Enter /CH/g16/l202.exe)
                          Input orientation:                          
 ---------------------------------------------------------------------
 Center     Atomic      Atomic             Coordinates (Angstroms)
 Number     Number       Type             X           Y           Z
 ---------------------------------------------------------------------
      1          8           0        0.000000    0.000000    0.045668
      2         14           0       -0.000000    1.504960    0.798711
      3         14           0        0.000000   -1.504960    0.798711
      4          1           0        1.217947    1.642903    1.648176
      5          1           0       -1.217947    1.642903    1.648176
      6          1           0       -0.000000    2.550092   -0.257897
      7          1           0        1.217947   -1.642903    1.648176
      8          1           0       -1.217947   -1.642903    1.648176
      9          1           0        0.000000   -2.550092   -0.257897
 ---------------------------------------------------------------------
                    Distance matrix (angstroms):
                    1          2          3          4          5
     1  O    0.000000
     2  Si   1.682848   0.000000
     3  Si   1.682848   3.009919   0.000000
     4  H    2.598183   1.491313   3.480521   0.000000
     5  H    2.598183   1.491313   3.480521   2.435893   0.000000
     6  H    2.568097   1.486177   4.190450   2.437110   2.437110
     7  H    2.598183   3.480521   1.491313   3.285806   4.090244
     8  H    2.598183   3.480521   1.491313   4.090244   3.285806
     9  H    2.568097   4.190450   1.486177   4.764212   4.764212
                    6          7          8          9
     6  H    0.000000
     7  H    4.764212   0.000000
     8  H    4.764212   2.435893   0.000000
     9  H    5.100185   2.437110   2.437110   0.000000
 Stoichiometry    H6OSi2
 Framework group  C2V[C2(O),SGV(H2Si2),X(H4)]
 Deg. of freedom     7
 Full point group                 C2V     NOp   4
 RotChk:  IX=0 Diff= 7.67D-16
 Largest Abelian subgroup         C2V     NOp   4
 Largest concise Abelian subgroup C2V     NOp   4
                         Standard orientation:                         
 ---------------------------------------------------------------------
 Center     Atomic      Atomic             Coordinates (Angstroms)
 Number     Number       Type             X           Y           Z
 ---------------------------------------------------------------------
      1          8           0        0.000000   -0.000000    0.640193
      2         14           0        0.000000    1.504960   -0.112850
      3         14           0       -0.000000   -1.504960   -0.112850
      4          1           0       -1.217947    1.642903   -0.962315
      5          1           0        1.217947    1.642903   -0.962315
      6          1           0        0.000000    2.550092    0.943758
      7          1           0       -1.217947   -1.642903   -0.962315
      8          1           0        1.217947   -1.642903   -0.962315
      9          1           0       -0.000000   -2.550092    0.943758
 ---------------------------------------------------------------------
 Rotational constants (GHZ):          26.9854018           3.2251617           3.0916335
 Leave Link  202 at Wed Jun 24 00:00:43 2026, MaxMem=  1879048192 cpu:               0.0 elap:               0.0
 (Enter /CH/g16/l301.exe)
 Standard basis: def2SVP (5D, 7F)
 Ernie: Thresh=  0.10000D-02 Tol=  0.10000D-05 Strict=F.
 There are    31 symmetry adapted cartesian basis functions of A1  symmetry.
 There are    12 symmetry adapted cartesian basis functions of A2  symmetry.
 There are    14 symmetry adapted cartesian basis functions of B1  symmetry.
 There are    26 symmetry adapted cartesian basis functions of B2  symmetry.
 There are    29 symmetry adapted basis functions of A1  symmetry.
 There are    12 symmetry adapted basis functions of A2  symmetry.
 There are    14 symmetry adapted basis functions of B1  symmetry.
 There are    25 symmetry adapted basis functions of B2  symmetry.
    80 basis functions,   141 primitive gaussians,    83 cartesian basis functions
    21 alpha electrons       21 beta electrons
       nuclear repulsion energy       159.0338730901 Hartrees.
 IExCor=  402 DFT=T Ex+Corr=B3LYP ExCW=0 ScaHFX=  0.200000
 ScaDFX=  0.800000  0.720000  1.000000  0.810000 ScalE2=  1.000000  1.000000
 IRadAn=      5 IRanWt=     -1 IRanGd=            0 ICorTp=0 IEmpDi=141
 NAtoms=    9 NActive=    9 NUniq=    4 SFac= 4.00D+00 NAtFMM=   60 NAOKFM=F Big=F
 Integral buffers will be    131072 words long.
 Raffenetti 2 integral format.
 Two-electron integral symmetry is turned on.
 R6Disp:  Grimme-D3(BJ) Dispersion energy=       -0.0109137462 Hartrees.
 Nuclear repulsion after empirical dispersion term =      159.0229593439 Hartrees.
 ------------------------------------------------------------------------------
 Polarizable Continuum Model (PCM)
 =================================
 Model                : PCM.
 Atomic radii         : SMD-Coulomb.
 Polarization charges : Total charges.
 Charge compensation  : None.
 Solution method      : On-the-fly selection.
 Cavity type          : VdW (van der Waals Surface) (Alpha=1.000).
 Cavity algorithm     : GePol (No added spheres)
                        Default sphere list used, NSphG=    9.
                        Lebedev-Laikov grids with approx.  5.0 points / Ang**2.
                        Smoothing algorithm: York/Karplus (Gamma=1.0000).
                        Polarization charges: spherical gaussians, with
                                              point-specific exponents (IZeta= 3).
                        Self-potential: point-specific (ISelfS= 7).
                        Self-field    : sphere-specific E.n sum rule (ISelfD= 2).
 1st derivatives      : Analytical E(r).r(x)/FMM algorithm (CHGder, D1EAlg=3).
                        Cavity 1st derivative terms included.
 Solvent              : TetraHydroFuran, Eps=   7.425700 Eps(inf)=   1.974025
 ------------------------------------------------------------------------------
 Spheres list:
 ISph  on   Nord     Re0    Alpha      Xe            Ye            Ze
    1   O      1    2.2940  1.000      0.000000     -0.000000      0.640193
    2  Si      2    2.4700  1.000      0.000000      1.504960     -0.112850
    3  Si      3    2.4700  1.000     -0.000000     -1.504960     -0.112850
    4   H      4    1.2000  1.000     -1.217947      1.642903     -0.962315
    5   H      5    1.2000  1.000      1.217947      1.642903     -0.962315
    6   H      6    1.2000  1.000      0.000000      2.550092      0.943758
    7   H      7    1.2000  1.000     -1.217947     -1.642903     -0.962315
    8   H      8    1.2000  1.000      1.217947     -1.642903     -0.962315
    9   H      9    1.2000  1.000     -0.000000     -2.550092      0.943758
 ------------------------------------------------------------------------------
 GePol: Number of generator spheres                  =       9
 GePol: Total number of spheres                      =       9
 GePol: Number of exposed spheres                    =       9 (100.00%)
 GePol: Number of points                             =     945
 GePol: Average weight of points                     =       0.14
 GePol: Minimum weight of points                     =   0.17D-06
 GePol: Maximum weight of points                     =    0.19536
 GePol: Number of points with low weight             =      38
 GePol: Fraction of low-weight points (<1% of avg)   =       4.02%
 GePol: Cavity surface area                          =    128.512 Ang**2
 GePol: Cavity volume                                =    122.463 Ang**3
 ------------------------------------------------------------------------------
 Atomic radii for non-electrostatic terms: SMD-CDS.
 ------------------------------------------------------------------------------
 PCM non-electrostatic energy =        -0.0002142178 Hartrees.
 Nuclear repulsion after PCM non-electrostatic terms =      159.0227451261 Hartrees.
 Leave Link  301 at Wed Jun 24 00:00:43 2026, MaxMem=  1879048192 cpu:               0.1 elap:               0.0
 (Enter /CH/g16/l302.exe)
 NPDir=0 NMtPBC=     1 NCelOv=     1 NCel=       1 NClECP=     1 NCelD=      1
         NCelK=      1 NCelE2=     1 NClLst=     1 CellRange=     0.0.
 One-electron integrals computed using PRISM.
 One-electron integral symmetry used in STVInt
   4 Symmetry operations used in ECPInt.
 ECPInt:  NShTT=     820 NPrTT=    3158 LenC2=     820 LenP2D=    2653.
 LDataN:  DoStor=T MaxTD1= 4 Len=   56
 NBasis=    80 RedAO= T EigKep=  8.75D-03  NBF=    29    12    14    25
 NBsUse=    80 1.00D-06 EigRej= -1.00D+00 NBFU=    29    12    14    25
 Precomputing XC quadrature grid using
 IXCGrd= 4 IRadAn=           5 IRanWt=          -1 IRanGd=           0 AccXCQ= 0.00D+00.
 Generated NRdTot=       0 NPtTot=           0 NUsed=           0 NTot=          32
 NSgBfM=    83    83    83    83    83 MxSgAt=     9 MxSgA2=     9.
 Leave Link  302 at Wed Jun 24 00:00:43 2026, MaxMem=  1879048192 cpu:               0.4 elap:               0.1
 (Enter /CH/g16/l303.exe)
 DipDrv:  MaxL=1.
 Leave Link  303 at Wed Jun 24 00:00:43 2026, MaxMem=  1879048192 cpu:               0.0 elap:               0.0
 (Enter /CH/g16/l401.exe)
 Initial guess from the checkpoint file:  "disiloxane.chk"
 B after Tr=    -0.000000   -0.000000   -0.000000
         Rot=    1.000000    0.000000   -0.000000    0.000000 Ang=   0.00 deg.
 Guess basis will be translated and rotated to current coordinates.
 JPrj=2 DoOrth=T DoCkMO=T.
 Initial guess orbital symmetries:
       Occupied  (A1) (B2) (A1) (B2) (A1) (A1) (B2) (B2) (A1) (A2)
                 (B1) (A1) (B2) (A1) (B2) (B1) (A1) (A2) (B2) (A1)
                 (B1)
       Virtual   (A1) (A1) (B2) (A2) (B1) (A1) (B2) (B2) (A1) (B2)
                 (B1) (A1) (A2) (B2) (A1) (B2) (B1) (A2) (A1) (B1)
                 (B2) (A1) (A2) (A1) (B2) (B2) (A1) (A1) (B1) (B2)
                 (B2) (A2) (B1) (A1) (B2) (A1) (B1) (A2) (A2) (A1)
                 (B1) (B2) (B2) (A1) (B1) (A2) (A1) (B2) (A1) (B2)
                 (B1) (A1) (B2) (A2) (B1) (A1) (A2) (A1) (B2)
 The electronic state of the initial guess is 1-A1.
 Generating alternative initial guess.
 ExpMin= 7.80D-02 ExpMax= 6.90D+03 ExpMxC= 1.04D+03 IAcc=3 IRadAn=         5 AccDes= 0.00D+00
 Harris functional with IExCor=  402 and IRadAn=       5 diagonalized for initial guess.
 HarFok:  IExCor=  402 AccDes= 0.00D+00 IRadAn=         5 IDoV= 1 UseB2=F ITyADJ=14
 ICtDFT=  3500011 ScaDFX=  1.000000  1.000000  1.000000  1.000000
 FoFCou: FMM=F IPFlag=           0 FMFlag=      100000 FMFlg1=           0
         NFxFlg=           0 DoJE=T BraDBF=F KetDBF=T FulRan=T
         wScrn=  0.000000 ICntrl=       500 IOpCl=  0 I1Cent=   200000004 NGrid=           0
         NMat0=    1 NMatS0=      1 NMatT0=    0 NMatD0=    1 NMtDS0=    0 NMtDT0=    0
 Petite list used in FoFCou.
 Harris En= -657.616548246861    
 Leave Link  401 at Wed Jun 24 00:00:43 2026, MaxMem=  1879048192 cpu:               0.5 elap:               0.1
 (Enter /CH/g16/l502.exe)
 Keep R1 ints in memory in symmetry-blocked form, NReq=12508855.
 FoFCou: FMM=F IPFlag=           0 FMFlag=           0 FMFlg1=           0
         NFxFlg=           0 DoJE=F BraDBF=F KetDBF=F FulRan=T
         wScrn=  0.000000 ICntrl=       600 IOpCl=  0 I1Cent=           0 NGrid=           0
         NMat0=    1 NMatS0=   3240 NMatT0=    0 NMatD0=    1 NMtDS0=    0 NMtDT0=    0
 Petite list used in FoFCou.
 Closed shell SCF:
 Using DIIS extrapolation, IDIIS=  1040.
 NGot=  1879048192 LenX=  1877686006 LenY=  1877678676
 Requested convergence on RMS density matrix=1.00D-08 within 128 cycles.
 Requested convergence on MAX density matrix=1.00D-06.
 Requested convergence on             energy=1.00D-06.
 No special actions if energy rises.

 Cycle   1  Pass 1  IDiag  1:
 Inv3:  Mode=1 IEnd=     2679075.
 Iteration    1 A*A^-1 deviation from unit magnitude is 3.11D-15 for    799.
 Iteration    1 A*A^-1 deviation from orthogonality  is 1.50D-15 for    661     80.
 Iteration    1 A^-1*A deviation from unit magnitude is 2.78D-15 for    799.
 Iteration    1 A^-1*A deviation from orthogonality  is 2.29D-15 for    606     39.
 E= -657.685461271617    
 DIIS: error= 3.92D-03 at cycle   1 NSaved=   1.
 NSaved= 1 IEnMin= 1 EnMin= -657.685461271617     IErMin= 1 ErrMin= 3.92D-03
 ErrMax= 3.92D-03  0.00D+00 EMaxC= 1.00D-01 BMatC= 1.57D-03 BMatP= 1.57D-03
 IDIUse=3 WtCom= 9.61D-01 WtEn= 3.92D-02
 Coeff-Com:  0.100D+01
 Coeff-En:   0.100D+01
 Coeff:      0.100D+01
 Gap=     0.317 Goal=   None    Shift=    0.000
 GapD=    0.317 DampG=1.000 DampE=1.000 DampFc=1.0000 IDamp=-1.
 RMSDP=8.21D-04 MaxDP=9.01D-03              OVMax= 1.80D-02

 Cycle   2  Pass 1  IDiag  1:
 E= -657.687517182955     Delta-E=       -0.002055911338 Rises=F Damp=F
 DIIS: error= 1.77D-03 at cycle   2 NSaved=   2.
 NSaved= 2 IEnMin= 2 EnMin= -657.687517182955     IErMin= 2 ErrMin= 1.77D-03
 ErrMax= 1.77D-03  0.00D+00 EMaxC= 1.00D-01 BMatC= 1.33D-04 BMatP= 1.57D-03
 IDIUse=3 WtCom= 9.82D-01 WtEn= 1.77D-02
 Coeff-Com:  0.107D+00 0.893D+00
 Coeff-En:   0.000D+00 0.100D+01
 Coeff:      0.105D+00 0.895D+00
 Gap=     0.304 Goal=   None    Shift=    0.000
 RMSDP=2.67D-04 MaxDP=5.85D-03 DE=-2.06D-03 OVMax= 7.14D-03

 Cycle   3  Pass 1  IDiag  1:
 E= -657.687432594740     Delta-E=        0.000084588215 Rises=F Damp=F
 DIIS: error= 2.68D-03 at cycle   3 NSaved=   3.
 NSaved= 3 IEnMin= 2 EnMin= -657.687517182955     IErMin= 2 ErrMin= 1.77D-03
 ErrMax= 2.68D-03  0.00D+00 EMaxC= 1.00D-01 BMatC= 2.89D-04 BMatP= 1.33D-04
 IDIUse=3 WtCom= 1.62D-01 WtEn= 8.38D-01
 Coeff-Com: -0.867D-03 0.599D+00 0.401D+00
 Coeff-En:   0.000D+00 0.608D+00 0.392D+00
 Coeff:     -0.140D-03 0.607D+00 0.393D+00
 Gap=     0.306 Goal=   None    Shift=    0.000
 RMSDP=1.58D-04 MaxDP=3.46D-03 DE= 8.46D-05 OVMax= 3.52D-03

 Cycle   4  Pass 1  IDiag  1:
 E= -657.687651805976     Delta-E=       -0.000219211236 Rises=F Damp=F
 DIIS: error= 7.52D-05 at cycle   4 NSaved=   4.
 NSaved= 4 IEnMin= 4 EnMin= -657.687651805976     IErMin= 4 ErrMin= 7.52D-05
 ErrMax= 7.52D-05  0.00D+00 EMaxC= 1.00D-01 BMatC= 4.00D-07 BMatP= 1.33D-04
 IDIUse=1 WtCom= 1.00D+00 WtEn= 0.00D+00
 Coeff-Com: -0.663D-02 0.742D-01 0.487D-01 0.884D+00
 Coeff:     -0.663D-02 0.742D-01 0.487D-01 0.884D+00
 Gap=     0.306 Goal=   None    Shift=    0.000
 RMSDP=1.56D-05 MaxDP=2.65D-04 DE=-2.19D-04 OVMax= 3.80D-04

 Cycle   5  Pass 1  IDiag  1:
 E= -657.687652549045     Delta-E=       -0.000000743068 Rises=F Damp=F
 DIIS: error= 1.61D-05 at cycle   5 NSaved=   5.
 NSaved= 5 IEnMin= 5 EnMin= -657.687652549045     IErMin= 5 ErrMin= 1.61D-05
 ErrMax= 1.61D-05  0.00D+00 EMaxC= 1.00D-01 BMatC= 3.11D-08 BMatP= 4.00D-07
 IDIUse=1 WtCom= 1.00D+00 WtEn= 0.00D+00
 Coeff-Com: -0.166D-02 0.384D-02 0.472D-02 0.209D+00 0.784D+00
 Coeff:     -0.166D-02 0.384D-02 0.472D-02 0.209D+00 0.784D+00
 Gap=     0.306 Goal=   None    Shift=    0.000
 RMSDP=3.57D-06 MaxDP=9.63D-05 DE=-7.43D-07 OVMax= 7.00D-05

 Cycle   6  Pass 1  IDiag  1:
 E= -657.687652591373     Delta-E=       -0.000000042328 Rises=F Damp=F
 DIIS: error= 3.42D-06 at cycle   6 NSaved=   6.
 NSaved= 6 IEnMin= 6 EnMin= -657.687652591373     IErMin= 6 ErrMin= 3.42D-06
 ErrMax= 3.42D-06  0.00D+00 EMaxC= 1.00D-01 BMatC= 1.15D-09 BMatP= 3.11D-08
 IDIUse=1 WtCom= 1.00D+00 WtEn= 0.00D+00
 Coeff-Com:  0.330D-04-0.374D-02-0.145D-02-0.327D-02 0.143D+00 0.866D+00
 Coeff:      0.330D-04-0.374D-02-0.145D-02-0.327D-02 0.143D+00 0.866D+00
 Gap=     0.306 Goal=   None    Shift=    0.000
 RMSDP=8.01D-07 MaxDP=1.82D-05 DE=-4.23D-08 OVMax= 2.26D-05

 Cycle   7  Pass 1  IDiag  1:
 E= -657.687652592999     Delta-E=       -0.000000001626 Rises=F Damp=F
 DIIS: error= 8.23D-07 at cycle   7 NSaved=   7.
 NSaved= 7 IEnMin= 7 EnMin= -657.687652592999     IErMin= 7 ErrMin= 8.23D-07
 ErrMax= 8.23D-07  0.00D+00 EMaxC= 1.00D-01 BMatC= 4.54D-11 BMatP= 1.15D-09
 IDIUse=1 WtCom= 1.00D+00 WtEn= 0.00D+00
 Coeff-Com:  0.390D-04-0.713D-03-0.501D-03-0.447D-02 0.905D-02 0.192D+00
 Coeff-Com:  0.805D+00
 Coeff:      0.390D-04-0.713D-03-0.501D-03-0.447D-02 0.905D-02 0.192D+00
 Coeff:      0.805D+00
 Gap=     0.306 Goal=   None    Shift=    0.000
 RMSDP=1.38D-07 MaxDP=2.80D-06 DE=-1.63D-09 OVMax= 2.53D-06

 Cycle   8  Pass 1  IDiag  1:
 E= -657.687652593062     Delta-E=       -0.000000000063 Rises=F Damp=F
 DIIS: error= 9.39D-08 at cycle   8 NSaved=   8.
 NSaved= 8 IEnMin= 8 EnMin= -657.687652593062     IErMin= 8 ErrMin= 9.39D-08
 ErrMax= 9.39D-08  0.00D+00 EMaxC= 1.00D-01 BMatC= 4.80D-13 BMatP= 4.54D-11
 IDIUse=1 WtCom= 1.00D+00 WtEn= 0.00D+00
 Coeff-Com:  0.181D-05 0.583D-04-0.169D-04-0.158D-03-0.378D-02-0.124D-01
 Coeff-Com:  0.317D-01 0.985D+00
 Coeff:      0.181D-05 0.583D-04-0.169D-04-0.158D-03-0.378D-02-0.124D-01
 Coeff:      0.317D-01 0.985D+00
 Gap=     0.306 Goal=   None    Shift=    0.000
 RMSDP=1.41D-08 MaxDP=2.20D-07 DE=-6.30D-11 OVMax= 4.12D-07

 Cycle   9  Pass 1  IDiag  1:
 E= -657.687652593065     Delta-E=       -0.000000000003 Rises=F Damp=F
 DIIS: error= 1.17D-08 at cycle   9 NSaved=   9.
 NSaved= 9 IEnMin= 9 EnMin= -657.687652593065     IErMin= 9 ErrMin= 1.17D-08
 ErrMax= 1.17D-08  0.00D+00 EMaxC= 1.00D-01 BMatC= 1.24D-14 BMatP= 4.80D-13
 IDIUse=1 WtCom= 1.00D+00 WtEn= 0.00D+00
 Coeff-Com: -0.375D-06 0.252D-04 0.750D-05 0.393D-04-0.966D-03-0.570D-02
 Coeff-Com: -0.565D-02 0.214D+00 0.799D+00
 Coeff:     -0.375D-06 0.252D-04 0.750D-05 0.393D-04-0.966D-03-0.570D-02
 Coeff:     -0.565D-02 0.214D+00 0.799D+00
 Gap=     0.306 Goal=   None    Shift=    0.000
 RMSDP=1.88D-09 MaxDP=3.28D-08 DE=-2.73D-12 OVMax= 5.54D-08

 Error on total polarization charges =  0.02447
 SCF Done:  E(RB3LYP) =  -657.687652593     A.U. after    9 cycles
            NFock=  9  Conv=0.19D-08     -V/T= 2.0042
 KE= 6.549533709817D+02 PE=-1.880593067900D+03 EE= 4.089292991995D+02
 SMD-CDS (non-electrostatic) energy       (kcal/mol) =      -0.13
 (included in total energy above)
 Leave Link  502 at Wed Jun 24 00:00:44 2026, MaxMem=  1879048192 cpu:               7.0 elap:               1.0
 (Enter /CH/g16/l701.exe)
 ... and contract with generalized density number  0.
 Compute integral first derivatives.
 R6Disp: Adding Grimme-D3(BJ) dispersion energy 1st derivatives to the gradient.
   4 Symmetry operations used in ECPInt.
 ECPInt:  NShTT=     820 NPrTT=    3158 LenC2=     820 LenP2D=    2653.
 LDataN:  DoStor=T MaxTD1= 5 Len=  102
 D1PCM: PCM CHGder 1st derivatives, ID1Alg=3 FixD1E=F DoIter=F DoCFld=F I1PDM=0.
 GePol: Maximum number of non-zero 1st derivatives   =     415
 Leave Link  701 at Wed Jun 24 00:00:44 2026, MaxMem=  1879048192 cpu:               1.6 elap:               0.2
 (Enter /CH/g16/l702.exe)
 L702 exits ... SP integral derivatives will be done elsewhere.
 Leave Link  702 at Wed Jun 24 00:00:44 2026, MaxMem=  1879048192 cpu:               0.0 elap:               0.0
 (Enter /CH/g16/l703.exe)
 Integral derivatives from FoFJK, PRISM(SPDF).
 Compute integral first derivatives, UseDBF=F ICtDFT=           0.
 Calling FoFJK, ICntrl=      2127 FMM=F ISym2X=1 I1Cent= 0 IOpClX= 0 NMat=1 NMatS=1 NMatT=0.
 FoFJK:  IHMeth= 1 ICntrl=    2127 DoSepK=F KAlg= 0 I1Cent=           0 FoldK=F
 IRaf=         0 NMat=       1 IRICut=       1 DoRegI=T DoRafI=F ISym2E= 1 IDoP0=0 IntGTp=1.
 FoFCou: FMM=F IPFlag=           0 FMFlag=      100000 FMFlg1=         800
         NFxFlg=           0 DoJE=F BraDBF=F KetDBF=F FulRan=T
         wScrn=  0.000000 ICntrl=      2127 IOpCl=  0 I1Cent=           0 NGrid=           0
         NMat0=    1 NMatS0=      1 NMatT0=    0 NMatD0=    1 NMtDS0=    0 NMtDT0=    0
 Petite list used in FoFCou.
 Leave Link  703 at Wed Jun 24 00:00:44 2026, MaxMem=  1879048192 cpu:               0.7 elap:               0.1
 (Enter /CH/g16/l716.exe)
 Dipole        =-1.46065151D-16-1.77635684D-15-3.21416760D-01
 ***** Axes restored to original set *****
 -------------------------------------------------------------------
 Center     Atomic                   Forces (Hartrees/Bohr)
 Number     Number              X              Y              Z
 -------------------------------------------------------------------
      1        8           0.000000000    0.000000000    0.008891591
      2       14           0.000000000   -0.001754201   -0.005149255
      3       14          -0.000000000    0.001754201   -0.005149255
      4        1          -0.000283311    0.000316328    0.000343383
      5        1           0.000283311    0.000316328    0.000343383
      6        1          -0.000000000   -0.000246624    0.000016695
      7        1          -0.000283311   -0.000316328    0.000343383
      8        1           0.000283311   -0.000316328    0.000343383
      9        1          -0.000000000    0.000246624    0.000016695
 -------------------------------------------------------------------
 Cartesian Forces:  Max     0.008891591 RMS     0.002273516
 Leave Link  716 at Wed Jun 24 00:00:44 2026, MaxMem=  1879048192 cpu:               0.0 elap:               0.0
 (Enter /CH/g16/l103.exe)

 GradGradGradGradGradGradGradGradGradGradGradGradGradGradGradGradGradGrad
 Berny optimization.
 Using GEDIIS/GDIIS optimizer.
 FormGI is forming the generalized inverse of G from B-inverse, IUseBI=4.
 Internal  Forces:  Max     0.011992721 RMS     0.002505351
 Search for a local minimum.
 Step number   2 out of a maximum of   37
 All quantities printed in internal units (Hartrees-Bohrs-Radians)
 RMS Force = .25054D-02 SwitMx=.10000D-02 MixMth= 1
 Mixed Optimization -- RFO/linear search
 Update second derivatives using D2CorX and points    1    2
 DE= -6.17D-03 DEPred=-6.27D-03 R= 9.83D-01
 TightC=F SS=  1.41D+00  RLast= 2.38D-01 DXNew= 5.0454D-01 7.1336D-01
 Trust test= 9.83D-01 RLast= 2.38D-01 DXMaxT set to 5.05D-01
 ITU=  1  0
 Use linear search instead of GDIIS.
     Eigenvalues ---    0.03249   0.03249   0.11070   0.11092   0.11207
     Eigenvalues ---    0.11207   0.15444   0.16000   0.16000   0.16000
     Eigenvalues ---    0.16000   0.16001   0.18550   0.19216   0.19341
     Eigenvalues ---    0.19875   0.19875   0.19875   0.26760   0.38097
     Eigenvalues ---    0.38567
 RFO step:  Lambda=-7.00989714D-04 EMin= 3.24944971D-02
 Quartic linear search produced a step of  0.08664.
 Iteration  1 RMS(Cart)=  0.04510789 RMS(Int)=  0.00063644
 Iteration  2 RMS(Cart)=  0.00089966 RMS(Int)=  0.00002296
 Iteration  3 RMS(Cart)=  0.00000024 RMS(Int)=  0.00002296
 ITry= 1 IFail=0 DXMaxC= 9.41D-02 DCOld= 1.00D+10 DXMaxT= 5.05D-01 DXLimC= 3.00D+00 Rises=F
 ClnCor:  largest displacement from symmetrization is 2.01D-12 for atom     8.
 Variable       Old X    -DE/DX   Delta X   Delta X   Delta X     New X
                                 (Linear)    (Quad)   (Total)
    R1        3.18012  -0.00321   0.00008  -0.00917  -0.00909   3.17103
    R2        3.18012  -0.00321   0.00008  -0.00917  -0.00909   3.17103
    R3        2.81817  -0.00001   0.00862  -0.00232   0.00630   2.82448
    R4        2.81817  -0.00001   0.00862  -0.00232   0.00630   2.82448
    R5        2.80847  -0.00019   0.00576  -0.00256   0.00320   2.81167
    R6        2.81817  -0.00001   0.00862  -0.00232   0.00630   2.82448
    R7        2.81817  -0.00001   0.00862  -0.00232   0.00630   2.82448
    R8        2.80847  -0.00019   0.00576  -0.00256   0.00320   2.81167
    A1        2.21370   0.01199   0.00548   0.05047   0.05594   2.26964
    A2        1.91517   0.00081   0.00218   0.00485   0.00701   1.92218
    A3        1.91517   0.00081   0.00218   0.00485   0.00701   1.92218
    A4        1.88679  -0.00053  -0.00154  -0.00307  -0.00460   1.88219
    A5        1.91132  -0.00093  -0.00106  -0.00622  -0.00733   1.90399
    A6        1.91763  -0.00007  -0.00085  -0.00015  -0.00099   1.91664
    A7        1.91763  -0.00007  -0.00085  -0.00015  -0.00099   1.91664
    A8        1.91517   0.00081   0.00218   0.00485   0.00701   1.92218
    A9        1.91517   0.00081   0.00218   0.00485   0.00701   1.92218
   A10        1.88679  -0.00053  -0.00154  -0.00307  -0.00460   1.88219
   A11        1.91132  -0.00093  -0.00106  -0.00622  -0.00733   1.90399
   A12        1.91763  -0.00007  -0.00085  -0.00015  -0.00099   1.91664
   A13        1.91763  -0.00007  -0.00085  -0.00015  -0.00099   1.91664
    D1        1.05043  -0.00006   0.00065  -0.00080  -0.00010   1.05033
    D2       -1.05043   0.00006  -0.00065   0.00080   0.00010  -1.05033
    D3        3.14159   0.00000   0.00000  -0.00000   0.00000   3.14159
    D4       -1.05043   0.00006  -0.00065   0.00080   0.00010  -1.05033
    D5        1.05043  -0.00006   0.00065  -0.00080  -0.00010   1.05033
    D6        3.14159  -0.00000   0.00000  -0.00000   0.00000   3.14159
         Item               Value     Threshold  Converged?
 Maximum Force            0.011993     0.000450     NO 
 RMS     Force            0.002505     0.000300     NO 
 Maximum Displacement     0.094107     0.001800     NO 
 RMS     Displacement     0.045115     0.001200     NO 
 Predicted change in Energy=-3.787292D-04
 Lowest energy point so far.  Saving SCF results.
 GradGradGradGradGradGradGradGradGradGradGradGradGradGradGradGradGradGrad

 Leave Link  103 at Wed Jun 24 00:00:44 2026, MaxMem=  1879048192 cpu:               0.0 elap:               0.0
 (Enter /CH/g16/l202.exe)
                          Input orientation:                          
 ---------------------------------------------------------------------
 Center     Atomic      Atomic             Coordinates (Angstroms)
 Number     Number       Type             X           Y           Z
 ---------------------------------------------------------------------
      1          8           0       -0.000000   -0.000000    0.092702
      2         14           0       -0.000000    1.521070    0.801330
      3         14           0        0.000000   -1.521070    0.801330
      4          1           0        1.217500    1.692702    1.651158
      5          1           0       -1.217500    1.692702    1.651158
      6          1           0       -0.000000    2.532391   -0.289998
      7          1           0        1.217500   -1.692702    1.651158
      8          1           0       -1.217500   -1.692702    1.651158
      9          1           0        0.000000   -2.532391   -0.289998
 ---------------------------------------------------------------------
                    Distance matrix (angstroms):
                    1          2          3          4          5
     1  O    0.000000
     2  Si   1.678037   0.000000
     3  Si   1.678037   3.042141   0.000000
     4  H    2.603139   1.494648   3.540177   0.000000
     5  H    2.603139   1.494648   3.540177   2.435000   0.000000
     6  H    2.561145   1.487873   4.197802   2.440383   2.440383
     7  H    2.603139   3.540177   1.494648   3.385404   4.170155
     8  H    2.603139   3.540177   1.494648   4.170155   3.385404
     9  H    2.561145   4.197802   1.487873   4.806434   4.806434
                    6          7          8          9
     6  H    0.000000
     7  H    4.806434   0.000000
     8  H    4.806434   2.435000   0.000000
     9  H    5.064782   2.440383   2.440383   0.000000
 Stoichiometry    H6OSi2
 Framework group  C2V[C2(O),SGV(H2Si2),X(H4)]
 Deg. of freedom     7
 Full point group                 C2V     NOp   4
 RotChk:  IX=0 Diff= 6.78D-16
 Largest Abelian subgroup         C2V     NOp   4
 Largest concise Abelian subgroup C2V     NOp   4
                         Standard orientation:                         
 ---------------------------------------------------------------------
 Center     Atomic      Atomic             Coordinates (Angstroms)
 Number     Number       Type             X           Y           Z
 ---------------------------------------------------------------------
      1          8           0       -0.000000    0.000000    0.602619
      2         14           0        0.000000    1.521070   -0.106009
      3         14           0       -0.000000   -1.521070   -0.106009
      4          1           0       -1.217500    1.692702   -0.955837
      5          1           0        1.217500    1.692702   -0.955837
      6          1           0        0.000000    2.532391    0.985319
      7          1           0       -1.217500   -1.692702   -0.955837
      8          1           0        1.217500   -1.692702   -0.955837
      9          1           0       -0.000000   -2.532391    0.985319
 ---------------------------------------------------------------------
 Rotational constants (GHZ):          28.0617211           3.1603850           3.0450226
 Leave Link  202 at Wed Jun 24 00:00:44 2026, MaxMem=  1879048192 cpu:               0.0 elap:               0.0
 (Enter /CH/g16/l301.exe)
 Standard basis: def2SVP (5D, 7F)
 Ernie: Thresh=  0.10000D-02 Tol=  0.10000D-05 Strict=F.
 There are    31 symmetry adapted cartesian basis functions of A1  symmetry.
 There are    12 symmetry adapted cartesian basis functions of A2  symmetry.
 There are    14 symmetry adapted cartesian basis functions of B1  symmetry.
 There are    26 symmetry adapted cartesian basis functions of B2  symmetry.
 There are    29 symmetry adapted basis functions of A1  symmetry.
 There are    12 symmetry adapted basis functions of A2  symmetry.
 There are    14 symmetry adapted basis functions of B1  symmetry.
 There are    25 symmetry adapted basis functions of B2  symmetry.
    80 basis functions,   141 primitive gaussians,    83 cartesian basis functions
    21 alpha electrons       21 beta electrons
       nuclear repulsion energy       158.6433906059 Hartrees.
 IExCor=  402 DFT=T Ex+Corr=B3LYP ExCW=0 ScaHFX=  0.200000
 ScaDFX=  0.800000  0.720000  1.000000  0.810000 ScalE2=  1.000000  1.000000
 IRadAn=      5 IRanWt=     -1 IRanGd=            0 ICorTp=0 IEmpDi=141
 NAtoms=    9 NActive=    9 NUniq=    4 SFac= 4.00D+00 NAtFMM=   60 NAOKFM=F Big=F
 Integral buffers will be    131072 words long.
 Raffenetti 2 integral format.
 Two-electron integral symmetry is turned on.
 R6Disp:  Grimme-D3(BJ) Dispersion energy=       -0.0108054787 Hartrees.
 Nuclear repulsion after empirical dispersion term =      158.6325851272 Hartrees.
 ------------------------------------------------------------------------------
 Polarizable Continuum Model (PCM)
 =================================
 Model                : PCM.
 Atomic radii         : SMD-Coulomb.
 Polarization charges : Total charges.
 Charge compensation  : None.
 Solution method      : On-the-fly selection.
 Cavity type          : VdW (van der Waals Surface) (Alpha=1.000).
 Cavity algorithm     : GePol (No added spheres)
                        Default sphere list used, NSphG=    9.
                        Lebedev-Laikov grids with approx.  5.0 points / Ang**2.
                        Smoothing algorithm: York/Karplus (Gamma=1.0000).
                        Polarization charges: spherical gaussians, with
                                              point-specific exponents (IZeta= 3).
                        Self-potential: point-specific (ISelfS= 7).
                        Self-field    : sphere-specific E.n sum rule (ISelfD= 2).
 1st derivatives      : Analytical E(r).r(x)/FMM algorithm (CHGder, D1EAlg=3).
                        Cavity 1st derivative terms included.
 Solvent              : TetraHydroFuran, Eps=   7.425700 Eps(inf)=   1.974025
 ------------------------------------------------------------------------------
 Spheres list:
 ISph  on   Nord     Re0    Alpha      Xe            Ye            Ze
    1   O      1    2.2940  1.000     -0.000000     -0.000000      0.602619
    2  Si      2    2.4700  1.000      0.000000      1.521070     -0.106009
    3  Si      3    2.4700  1.000     -0.000000     -1.521070     -0.106009
    4   H      4    1.2000  1.000     -1.217500      1.692702     -0.955837
    5   H      5    1.2000  1.000      1.217500      1.692702     -0.955837
    6   H      6    1.2000  1.000      0.000000      2.532391      0.985319
    7   H      7    1.2000  1.000     -1.217500     -1.692702     -0.955837
    8   H      8    1.2000  1.000      1.217500     -1.692702     -0.955837
    9   H      9    1.2000  1.000     -0.000000     -2.532391      0.985319
 ------------------------------------------------------------------------------
 GePol: Number of generator spheres                  =       9
 GePol: Total number of spheres                      =       9
 GePol: Number of exposed spheres                    =       9 (100.00%)
 GePol: Number of points                             =     953
 GePol: Average weight of points                     =       0.13
 GePol: Minimum weight of points                     =   0.94D-06
 GePol: Maximum weight of points                     =    0.19536
 GePol: Number of points with low weight             =      42
 GePol: Fraction of low-weight points (<1% of avg)   =       4.41%
 GePol: Cavity surface area                          =    128.589 Ang**2
 GePol: Cavity volume                                =    122.410 Ang**3
 ------------------------------------------------------------------------------
 Atomic radii for non-electrostatic terms: SMD-CDS.
 ------------------------------------------------------------------------------
 PCM non-electrostatic energy =        -0.0001964874 Hartrees.
 Nuclear repulsion after PCM non-electrostatic terms =      158.6323886398 Hartrees.
 Leave Link  301 at Wed Jun 24 00:00:44 2026, MaxMem=  1879048192 cpu:               0.0 elap:               0.0
 (Enter /CH/g16/l302.exe)
 NPDir=0 NMtPBC=     1 NCelOv=     1 NCel=       1 NClECP=     1 NCelD=      1
         NCelK=      1 NCelE2=     1 NClLst=     1 CellRange=     0.0.
 One-electron integrals computed using PRISM.
 One-electron integral symmetry used in STVInt
   4 Symmetry operations used in ECPInt.
 ECPInt:  NShTT=     820 NPrTT=    3158 LenC2=     820 LenP2D=    2647.
 LDataN:  DoStor=T MaxTD1= 4 Len=   56
 NBasis=    80 RedAO= T EigKep=  9.04D-03  NBF=    29    12    14    25
 NBsUse=    80 1.00D-06 EigRej= -1.00D+00 NBFU=    29    12    14    25
 Precomputing XC quadrature grid using
 IXCGrd= 4 IRadAn=           5 IRanWt=          -1 IRanGd=           0 AccXCQ= 0.00D+00.
 Generated NRdTot=       0 NPtTot=           0 NUsed=           0 NTot=          32
 NSgBfM=    83    83    83    83    83 MxSgAt=     9 MxSgA2=     9.
 Leave Link  302 at Wed Jun 24 00:00:44 2026, MaxMem=  1879048192 cpu:               0.3 elap:               0.1
 (Enter /CH/g16/l303.exe)
 DipDrv:  MaxL=1.
 Leave Link  303 at Wed Jun 24 00:00:44 2026, MaxMem=  1879048192 cpu:               0.0 elap:               0.0
 (Enter /CH/g16/l401.exe)
 Initial guess from the checkpoint file:  "disiloxane.chk"
 B after Tr=     0.000000   -0.000000    0.000000
         Rot=    1.000000    0.000000   -0.000000   -0.000000 Ang=   0.00 deg.
 Guess basis will be translated and rotated to current coordinates.
 JPrj=2 DoOrth=T DoCkMO=T.
 Initial guess orbital symmetries:
       Occupied  (B2) (A1) (A1) (B2) (A1) (A1) (B2) (B2) (A1) (A2)
                 (B1) (A1) (B2) (A1) (B2) (A1) (B1) (A2) (B2) (A1)
                 (B1)
       Virtual   (A1) (A1) (B2) (A2) (A1) (B1) (B2) (B2) (A1) (B2)
                 (B1) (A1) (A2) (B2) (A1) (B2) (B1) (A2) (A1) (B1)
                 (B2) (A1) (A2) (A1) (B2) (B2) (A1) (B1) (A1) (B2)
                 (B2) (A2) (B1) (A1) (B2) (A1) (B1) (A2) (A2) (A1)
                 (B1) (B2) (B2) (A1) (B1) (A2) (A1) (B2) (A1) (B2)
                 (B1) (A1) (A2) (B2) (B1) (A1) (A2) (A1) (B2)
 The electronic state of the initial guess is 1-A1.
 Generating alternative initial guess.
 ExpMin= 7.80D-02 ExpMax= 6.90D+03 ExpMxC= 1.04D+03 IAcc=3 IRadAn=         5 AccDes= 0.00D+00
 Harris functional with IExCor=  402 and IRadAn=       5 diagonalized for initial guess.
 HarFok:  IExCor=  402 AccDes= 0.00D+00 IRadAn=         5 IDoV= 1 UseB2=F ITyADJ=14
 ICtDFT=  3500011 ScaDFX=  1.000000  1.000000  1.000000  1.000000
 FoFCou: FMM=F IPFlag=           0 FMFlag=      100000 FMFlg1=           0
         NFxFlg=           0 DoJE=T BraDBF=F KetDBF=T FulRan=T
         wScrn=  0.000000 ICntrl=       500 IOpCl=  0 I1Cent=   200000004 NGrid=           0
         NMat0=    1 NMatS0=      1 NMatT0=    0 NMatD0=    1 NMtDS0=    0 NMtDT0=    0
 Petite list used in FoFCou.
 Harris En= -657.617180993973    
 Leave Link  401 at Wed Jun 24 00:00:45 2026, MaxMem=  1879048192 cpu:               0.6 elap:               0.1
 (Enter /CH/g16/l502.exe)
 Keep R1 ints in memory in symmetry-blocked form, NReq=12508855.
 FoFCou: FMM=F IPFlag=           0 FMFlag=           0 FMFlg1=           0
         NFxFlg=           0 DoJE=F BraDBF=F KetDBF=F FulRan=T
         wScrn=  0.000000 ICntrl=       600 IOpCl=  0 I1Cent=           0 NGrid=           0
         NMat0=    1 NMatS0=   3240 NMatT0=    0 NMatD0=    1 NMtDS0=    0 NMtDT0=    0
 Petite list used in FoFCou.
 Closed shell SCF:
 Using DIIS extrapolation, IDIIS=  1040.
 NGot=  1879048192 LenX=  1877686006 LenY=  1877678676
 Requested convergence on RMS density matrix=1.00D-08 within 128 cycles.
 Requested convergence on MAX density matrix=1.00D-06.
 Requested convergence on             energy=1.00D-06.
 No special actions if energy rises.

 Cycle   1  Pass 1  IDiag  1:
 Inv3:  Mode=1 IEnd=     2724627.
 Iteration    1 A*A^-1 deviation from unit magnitude is 2.89D-15 for     50.
 Iteration    1 A*A^-1 deviation from orthogonality  is 1.37D-15 for    669    210.
 Iteration    1 A^-1*A deviation from unit magnitude is 3.11D-15 for     50.
 Iteration    1 A^-1*A deviation from orthogonality  is 1.67D-15 for    904    112.
 E= -657.687513984192    
 DIIS: error= 2.40D-03 at cycle   1 NSaved=   1.
 NSaved= 1 IEnMin= 1 EnMin= -657.687513984192     IErMin= 1 ErrMin= 2.40D-03
 ErrMax= 2.40D-03  0.00D+00 EMaxC= 1.00D-01 BMatC= 4.74D-04 BMatP= 4.74D-04
 IDIUse=3 WtCom= 9.76D-01 WtEn= 2.40D-02
 Coeff-Com:  0.100D+01
 Coeff-En:   0.100D+01
 Coeff:      0.100D+01
 Gap=     0.311 Goal=   None    Shift=    0.000
 GapD=    0.311 DampG=1.000 DampE=1.000 DampFc=1.0000 IDamp=-1.
 RMSDP=4.52D-04 MaxDP=4.64D-03              OVMax= 1.36D-02

 Cycle   2  Pass 1  IDiag  1:
 E= -657.688256564368     Delta-E=       -0.000742580177 Rises=F Damp=F
 DIIS: error= 9.75D-04 at cycle   2 NSaved=   2.
 NSaved= 2 IEnMin= 2 EnMin= -657.688256564368     IErMin= 2 ErrMin= 9.75D-04
 ErrMax= 9.75D-04  0.00D+00 EMaxC= 1.00D-01 BMatC= 4.02D-05 BMatP= 4.74D-04
 IDIUse=3 WtCom= 9.90D-01 WtEn= 9.75D-03
 Coeff-Com:  0.656D-01 0.934D+00
 Coeff-En:   0.000D+00 0.100D+01
 Coeff:      0.650D-01 0.935D+00
 Gap=     0.306 Goal=   None    Shift=    0.000
 RMSDP=1.45D-04 MaxDP=3.32D-03 DE=-7.43D-04 OVMax= 3.51D-03

 Cycle   3  Pass 1  IDiag  1:
 E= -657.688222132142     Delta-E=        0.000034432226 Rises=F Damp=F
 DIIS: error= 1.54D-03 at cycle   3 NSaved=   3.
 NSaved= 3 IEnMin= 2 EnMin= -657.688256564368     IErMin= 2 ErrMin= 9.75D-04
 ErrMax= 1.54D-03  0.00D+00 EMaxC= 1.00D-01 BMatC= 9.50D-05 BMatP= 4.02D-05
 IDIUse=3 WtCom= 2.03D-01 WtEn= 7.97D-01
 Coeff-Com: -0.402D-01 0.629D+00 0.411D+00
 Coeff-En:   0.000D+00 0.645D+00 0.355D+00
 Coeff:     -0.817D-02 0.642D+00 0.366D+00
 Gap=     0.307 Goal=   None    Shift=    0.000
 RMSDP=8.39D-05 MaxDP=1.87D-03 DE= 3.44D-05 OVMax= 1.87D-03

 Cycle   4  Pass 1  IDiag  1:
 E= -657.688293086483     Delta-E=       -0.000070954341 Rises=F Damp=F
 DIIS: error= 7.48D-05 at cycle   4 NSaved=   4.
 NSaved= 4 IEnMin= 4 EnMin= -657.688293086483     IErMin= 4 ErrMin= 7.48D-05
[...]
 (Enter /CH/g16/l703.exe)
 Integral derivatives from FoFJK, PRISM(SPDF).
 Compute integral first derivatives, UseDBF=F ICtDFT=           0.
 Calling FoFJK, ICntrl=      2127 FMM=F ISym2X=1 I1Cent= 0 IOpClX= 0 NMat=1 NMatS=1 NMatT=0.
 FoFJK:  IHMeth= 1 ICntrl=    2127 DoSepK=F KAlg= 0 I1Cent=           0 FoldK=F
 IRaf=         0 NMat=       1 IRICut=       1 DoRegI=T DoRafI=F ISym2E= 1 IDoP0=0 IntGTp=1.
 FoFCou: FMM=F IPFlag=           0 FMFlag=      100000 FMFlg1=         800
         NFxFlg=           0 DoJE=F BraDBF=F KetDBF=F FulRan=T
         wScrn=  0.000000 ICntrl=      2127 IOpCl=  0 I1Cent=           0 NGrid=           0
         NMat0=    1 NMatS0=      1 NMatT0=    0 NMatD0=    1 NMtDS0=    0 NMtDT0=    0
 Petite list used in FoFCou.
 Leave Link  703 at Wed Jun 24 00:00:53 2026, MaxMem=  1879048192 cpu:               0.7 elap:               0.1
 (Enter /CH/g16/l716.exe)
 Dipole        = 3.22858528D-16-4.44089210D-15-2.09333552D-01
 ***** Axes restored to original set *****
 -------------------------------------------------------------------
 Center     Atomic                   Forces (Hartrees/Bohr)
 Number     Number              X              Y              Z
 -------------------------------------------------------------------
      1        8           0.000000000   -0.000000000    0.000014950
      2       14          -0.000000000   -0.000055423    0.000036953
      3       14          -0.000000000    0.000055423    0.000036953
      4        1           0.000042933    0.000007469   -0.000015908
      5        1          -0.000042933    0.000007469   -0.000015908
      6        1          -0.000000000    0.000039720   -0.000012613
      7        1           0.000042933   -0.000007469   -0.000015908
      8        1          -0.000042933   -0.000007469   -0.000015908
      9        1          -0.000000000   -0.000039720   -0.000012613
 -------------------------------------------------------------------
 Cartesian Forces:  Max     0.000055423 RMS     0.000028008
 Leave Link  716 at Wed Jun 24 00:00:53 2026, MaxMem=  1879048192 cpu:               0.0 elap:               0.0
 (Enter /CH/g16/l103.exe)

 GradGradGradGradGradGradGradGradGradGradGradGradGradGradGradGradGradGrad
 Berny optimization.
 Using GEDIIS/GDIIS optimizer.
 FormGI is forming the generalized inverse of G from B-inverse, IUseBI=4.
 Internal  Forces:  Max     0.000052563 RMS     0.000028153
 Search for a local minimum.
 Step number   7 out of a maximum of   37
 All quantities printed in internal units (Hartrees-Bohrs-Radians)
 RMS Force = .28153D-04 SwitMx=.10000D-02 MixMth= 2
 Mixed Optimization -- En-DIIS/RFO-DIIS
 Swapping is turned off.
 Update second derivatives using D2CorX and points    1    2    3    4    5
                                                      6    7
 DE= -3.96D-06 DEPred=-3.62D-06 R= 1.09D+00
 TightC=F SS=  1.41D+00  RLast= 1.33D-02 DXNew= 8.4853D-01 3.9944D-02
 Trust test= 1.09D+00 RLast= 1.33D-02 DXMaxT set to 5.05D-01
 ITU=  1  1  1  1  1  1  0
     Eigenvalues ---    0.01934   0.03249   0.03249   0.08871   0.10978
     Eigenvalues ---    0.11166   0.11166   0.13909   0.16000   0.16000
     Eigenvalues ---    0.16000   0.16000   0.16125   0.19216   0.19315
     Eigenvalues ---    0.19875   0.19875   0.19875   0.21647   0.38097
     Eigenvalues ---    0.38582
 En-DIIS/RFO-DIIS/Sim-DIIS IScMMF=       -3 using points:     7    6    5    4
 RFO step:  Lambda=-1.82709376D-07.
 NNeg= 0 NGDIIS= 4 SimSw=  2.50D-01 Rises=F DC= -3.96D-06 SmlDif=  1.00D-05
 NRisDI= 0 DoIntr=F SqrtH=F CThrHd= 10.0 CDAdj=  3.0
 RMS Error=  0.2701889054D-03 NUsed= 4 OKEnD=F EnDIS=F
 InvSVX:  RCond= 3.78D-07 Info=           0 Equed=N FErr=  5.97D-14 BErr=  4.39D-17
 DidBck=F Rises=F RFO-DIIS coefs:    1.33028   -0.41564    0.07614    0.00923
 Iteration  1 RMS(Cart)=  0.00057253 RMS(Int)=  0.00000021
 Iteration  2 RMS(Cart)=  0.00000022 RMS(Int)=  0.00000016
 ITry= 1 IFail=0 DXMaxC= 1.47D-03 DCOld= 1.00D+10 DXMaxT= 5.05D-01 DXLimC= 3.00D+00 Rises=F
 ClnCor:  largest displacement from symmetrization is 5.56D-12 for atom     8.
 Variable       Old X    -DE/DX   Delta X   Delta X   Delta X     New X
                                 (Linear)    (Quad)   (Total)
    R1        3.13956  -0.00000   0.00000  -0.00004  -0.00004   3.13953
    R2        3.13956  -0.00000   0.00000  -0.00004  -0.00004   3.13953
    R3        2.81800   0.00003   0.00011   0.00001   0.00012   2.81812
    R4        2.81800   0.00003   0.00011   0.00001   0.00012   2.81812
    R5        2.80974   0.00003   0.00013   0.00008   0.00021   2.80995
    R6        2.81800   0.00003   0.00011   0.00001   0.00012   2.81812
    R7        2.81800   0.00003   0.00011   0.00001   0.00012   2.81812
    R8        2.80974   0.00003   0.00013   0.00008   0.00021   2.80995
    A1        2.55249  -0.00001   0.00076  -0.00004   0.00072   2.55321
    A2        1.92591  -0.00001  -0.00018   0.00006  -0.00012   1.92579
    A3        1.92591  -0.00001  -0.00018   0.00006  -0.00012   1.92579
    A4        1.88721   0.00004   0.00012   0.00020   0.00031   1.88752
    A5        1.90163   0.00005   0.00078  -0.00006   0.00072   1.90234
    A6        1.91156  -0.00003  -0.00028  -0.00013  -0.00041   1.91115
    A7        1.91156  -0.00003  -0.00028  -0.00013  -0.00041   1.91115
    A8        1.92591  -0.00001  -0.00018   0.00006  -0.00012   1.92579
    A9        1.92591  -0.00001  -0.00018   0.00006  -0.00012   1.92579
   A10        1.88721   0.00004   0.00012   0.00020   0.00031   1.88752
   A11        1.90163   0.00005   0.00078  -0.00006   0.00072   1.90234
   A12        1.91156  -0.00003  -0.00028  -0.00013  -0.00041   1.91115
   A13        1.91156  -0.00003  -0.00028  -0.00013  -0.00041   1.91115
    D1        1.05126   0.00003   0.00038  -0.00000   0.00037   1.05163
    D2       -1.05126  -0.00003  -0.00038   0.00000  -0.00037  -1.05163
    D3        3.14159  -0.00000   0.00000  -0.00000   0.00000   3.14159
    D4       -1.05126  -0.00003  -0.00038   0.00000  -0.00037  -1.05163
    D5        1.05126   0.00003   0.00038  -0.00000   0.00037   1.05163
    D6        3.14159  -0.00000   0.00000  -0.00000   0.00000   3.14159
         Item               Value     Threshold  Converged?
 Maximum Force            0.000053     0.000450     YES
 RMS     Force            0.000028     0.000300     YES
 Maximum Displacement     0.001473     0.001800     YES
 RMS     Displacement     0.000572     0.001200     YES
 Predicted change in Energy=-8.663582D-08
 Optimization completed.
    -- Stationary point found.
                           ----------------------------
                           !   Optimized Parameters   !
                           ! (Angstroms and Degrees)  !
 --------------------------                            --------------------------
 ! Name  Definition              Value          Derivative Info.                !
 --------------------------------------------------------------------------------
 ! R1    R(1,2)                  1.6614         -DE/DX =    0.0                 !
 ! R2    R(1,3)                  1.6614         -DE/DX =    0.0                 !
 ! R3    R(2,4)                  1.4912         -DE/DX =    0.0                 !
 ! R4    R(2,5)                  1.4912         -DE/DX =    0.0                 !
 ! R5    R(2,6)                  1.4869         -DE/DX =    0.0                 !
 ! R6    R(3,7)                  1.4912         -DE/DX =    0.0                 !
 ! R7    R(3,8)                  1.4912         -DE/DX =    0.0                 !
 ! R8    R(3,9)                  1.4869         -DE/DX =    0.0                 !
 ! A1    A(2,1,3)              146.2469         -DE/DX =    0.0                 !
 ! A2    A(1,2,4)              110.3464         -DE/DX =    0.0                 !
 ! A3    A(1,2,5)              110.3464         -DE/DX =    0.0                 !
 ! A4    A(1,2,6)              108.1293         -DE/DX =    0.0                 !
 ! A5    A(4,2,5)              108.9551         -DE/DX =    0.0001              !
 ! A6    A(4,2,6)              109.5243         -DE/DX =    0.0                 !
 ! A7    A(5,2,6)              109.5243         -DE/DX =    0.0                 !
 ! A8    A(1,3,7)              110.3464         -DE/DX =    0.0                 !
 ! A9    A(1,3,8)              110.3464         -DE/DX =    0.0                 !
 ! A10   A(1,3,9)              108.1293         -DE/DX =    0.0                 !
 ! A11   A(7,3,8)              108.9551         -DE/DX =    0.0001              !
 ! A12   A(7,3,9)              109.5243         -DE/DX =    0.0                 !
 ! A13   A(8,3,9)              109.5243         -DE/DX =    0.0                 !
 ! D1    D(3,1,2,4)             60.2325         -DE/DX =    0.0                 !
 ! D2    D(3,1,2,5)            -60.2325         -DE/DX =    0.0                 !
 ! D3    D(3,1,2,6)            180.0            -DE/DX =    0.0                 !
 ! D4    D(2,1,3,7)            -60.2325         -DE/DX =    0.0                 !
 ! D5    D(2,1,3,8)             60.2325         -DE/DX =    0.0                 !
 ! D6    D(2,1,3,9)            180.0            -DE/DX =    0.0                 !
 --------------------------------------------------------------------------------
 Lowest energy point so far.  Saving SCF results.
 Largest change from initial coordinates is atom    4       0.306 Angstoms.
 GradGradGradGradGradGradGradGradGradGradGradGradGradGradGradGradGradGrad

 Leave Link  103 at Wed Jun 24 00:00:53 2026, MaxMem=  1879048192 cpu:               0.0 elap:               0.0
 (Enter /CH/g16/l202.exe)
                          Input orientation:                          
 ---------------------------------------------------------------------
 Center     Atomic      Atomic             Coordinates (Angstroms)
 Number     Number       Type             X           Y           Z
 ---------------------------------------------------------------------
      1          8           0        0.000000   -0.000000    0.337557
      2         14           0       -0.000000    1.589834    0.819875
      3         14           0        0.000000   -1.589834    0.819875
      4          1           0        1.213685    1.884467    1.634671
      5          1           0       -1.213685    1.884467    1.634671
      6          1           0       -0.000000    2.442781   -0.397995
      7          1           0        1.213685   -1.884467    1.634671
      8          1           0       -1.213685   -1.884467    1.634671
      9          1           0        0.000000   -2.442781   -0.397995
 ---------------------------------------------------------------------
                    Distance matrix (angstroms):
                    1          2          3          4          5
     1  O    0.000000
     2  Si   1.661386   0.000000
     3  Si   1.661386   3.179668   0.000000
     4  H    2.589740   1.491219   3.769310   0.000000
     5  H    2.589740   1.491219   3.769310   2.427370   0.000000
     6  H    2.551121   1.486851   4.212504   2.432381   2.432381
     7  H    2.589740   3.769310   1.491219   3.768935   4.482967
     8  H    2.589740   3.769310   1.491219   4.482967   3.768935
     9  H    2.551121   4.212504   1.486851   4.932529   4.932529
                    6          7          8          9
     6  H    0.000000
     7  H    4.932529   0.000000
     8  H    4.932529   2.427370   0.000000
     9  H    4.885562   2.432381   2.432381   0.000000
 Stoichiometry    H6OSi2
 Framework group  C2V[C2(O),SGV(H2Si2),X(H4)]
 Deg. of freedom     7
 Full point group                 C2V     NOp   4
 RotChk:  IX=0 Diff= 6.92D-16
 Largest Abelian subgroup         C2V     NOp   4
 Largest concise Abelian subgroup C2V     NOp   4
                         Standard orientation:                         
 ---------------------------------------------------------------------
 Center     Atomic      Atomic             Coordinates (Angstroms)
 Number     Number       Type             X           Y           Z
 ---------------------------------------------------------------------
      1          8           0        0.000000    0.000000    0.410053
      2         14           0       -0.000000    1.589834   -0.072264
      3         14           0       -0.000000   -1.589834   -0.072264
      4          1           0       -1.213685    1.884467   -0.887061
      5          1           0        1.213685    1.884467   -0.887061
      6          1           0       -0.000000    2.442781    1.145606
      7          1           0       -1.213685   -1.884467   -0.887061
      8          1           0        1.213685   -1.884467   -0.887061
      9          1           0       -0.000000   -2.442781    1.145606
 ---------------------------------------------------------------------
 Rotational constants (GHZ):          34.3388941           2.9093361           2.8625210
 Leave Link  202 at Wed Jun 24 00:00:53 2026, MaxMem=  1879048192 cpu:               0.0 elap:               0.0
 (Enter /CH/g16/l601.exe)
 Copying SCF densities to generalized density rwf, IOpCl= 0 IROHF=0.

 **********************************************************************

            Population analysis using the SCF Density.

 **********************************************************************

 Orbital symmetries:
       Occupied  (B2) (A1) (A1) (B2) (A1) (A1) (B2) (A2) (B2) (B1)
                 (A1) (A1) (B2) (A1) (B2) (A1) (B1) (B2) (A2) (A1)
                 (B1)
       Virtual   (A1) (B2) (A2) (A1) (B2) (A1) (B1) (B2) (A1) (B2)
                 (B1) (A1) (A2) (B2) (B2) (A1) (A2) (B1) (A1) (B1)
                 (A1) (B2) (A2) (A1) (B2) (B2) (A1) (A1) (B1) (B2)
                 (A2) (B2) (B1) (A1) (A1) (B1) (A2) (B2) (A2) (A1)
                 (B1) (B2) (A1) (B2) (B1) (A2) (A1) (B2) (A1) (B2)
                 (B1) (A1) (A2) (B2) (B1) (A1) (A2) (B2) (A1)
 The electronic state is 1-A1.
 Alpha  occ. eigenvalues --  -66.14243 -66.14236 -19.13048  -5.30666  -5.30662
 Alpha  occ. eigenvalues --   -3.67031  -3.67030  -3.66764  -3.66764  -3.66763
 Alpha  occ. eigenvalues --   -3.66763  -0.97374  -0.58838  -0.50447  -0.42916
 Alpha  occ. eigenvalues --   -0.40464  -0.40353  -0.34731  -0.34705  -0.30763
 Alpha  occ. eigenvalues --   -0.30276
 Alpha virt. eigenvalues --    0.00761   0.06373   0.06962   0.07033   0.08783
 Alpha virt. eigenvalues --    0.08926   0.09835   0.12000   0.19831   0.28402
 Alpha virt. eigenvalues --    0.29091   0.29412   0.32951   0.34265   0.39549
 Alpha virt. eigenvalues --    0.39952   0.42277   0.45660   0.47918   0.52779
 Alpha virt. eigenvalues --    0.53499   0.53612   0.55932   0.57747   0.58567
 Alpha virt. eigenvalues --    0.62894   0.85404   0.87834   0.88528   0.90220
 Alpha virt. eigenvalues --    0.90955   0.97578   1.11869   1.12857   1.24285
 Alpha virt. eigenvalues --    1.37340   1.37346   1.37717   1.47799   1.54759
 Alpha virt. eigenvalues --    1.58928   1.59387   1.67680   1.69562   1.70778
 Alpha virt. eigenvalues --    1.71986   1.74011   1.77956   1.97793   1.99029
 Alpha virt. eigenvalues --    2.15895   2.16939   2.17695   2.18103   2.66356
 Alpha virt. eigenvalues --    2.66613   2.75655   2.98986   3.15274
          Condensed to atoms (all electrons):
               1          2          3          4          5          6
     1  O    7.913259   0.380801   0.380801  -0.017720  -0.017720  -0.016419
     2  Si   0.380801  11.870076  -0.022856   0.382061   0.382061   0.371449
     3  Si   0.380801  -0.022856  11.870076  -0.002350  -0.002350   0.001697
     4  H   -0.017720   0.382061  -0.002350   0.808153  -0.028796  -0.023793
     5  H   -0.017720   0.382061  -0.002350  -0.028796   0.808153  -0.023793
     6  H   -0.016419   0.371449   0.001697  -0.023793  -0.023793   0.806352
     7  H   -0.017720  -0.002350   0.382061   0.002043  -0.000307  -0.000103
     8  H   -0.017720  -0.002350   0.382061  -0.000307   0.002043  -0.000103
     9  H   -0.016419   0.001697   0.371449  -0.000103  -0.000103   0.000172
               7          8          9
     1  O   -0.017720  -0.017720  -0.016419
     2  Si  -0.002350  -0.002350   0.001697
     3  Si   0.382061   0.382061   0.371449
     4  H    0.002043  -0.000307  -0.000103
     5  H   -0.000307   0.002043  -0.000103
     6  H   -0.000103  -0.000103   0.000172
     7  H    0.808153  -0.028796  -0.023793
     8  H   -0.028796   0.808153  -0.023793
     9  H   -0.023793  -0.023793   0.806352
 Mulliken charges:
               1
     1  O   -0.571144
     2  Si   0.639409
     3  Si   0.639409
     4  H   -0.119189
     5  H   -0.119189
     6  H   -0.115460
     7  H   -0.119189
     8  H   -0.119189
     9  H   -0.115460
 Sum of Mulliken charges =   0.00000
 Mulliken charges with hydrogens summed into heavy atoms:
               1
     1  O   -0.571144
     2  Si   0.285572
     3  Si   0.285572
 Electronic spatial extent (au):  <R**2>=            472.3591
 Charge=              0.0000 electrons
 Dipole moment (field-independent basis, Debye):
    X=             -0.0000    Y=             -0.0000    Z=             -0.5321  Tot=              0.5321
 Quadrupole moment (field-independent basis, Debye-Ang):
   XX=            -36.2914   YY=            -33.8378   ZZ=            -36.5353
   XY=              0.0000   XZ=             -0.0000   YZ=              0.0000
 Traceless Quadrupole moment (field-independent basis, Debye-Ang):
   XX=             -0.7366   YY=              1.7171   ZZ=             -0.9805
   XY=              0.0000   XZ=             -0.0000   YZ=              0.0000
 Octapole moment (field-independent basis, Debye-Ang**2):
  XXX=              0.0000  YYY=              0.0000  ZZZ=              2.0492  XYY=              0.0000
  XXY=             -0.0000  XXZ=              3.7585  XZZ=              0.0000  YZZ=             -0.0000
  YYZ=             -0.7467  XYZ=             -0.0000
 Hexadecapole moment (field-independent basis, Debye-Ang**3):
 XXXX=            -86.7325 YYYY=           -555.0168 ZZZZ=            -91.0672 XXXY=             -0.0000
 XXXZ=             -0.0000 YYYX=             -0.0000 YYYZ=             -0.0000 ZZZX=              0.0000
 ZZZY=             -0.0000 XXYY=           -115.3540 XXZZ=            -30.2647 YYZZ=           -117.2367
 XXYZ=             -0.0000 YYXZ=              0.0000 ZZXY=             -0.0000
 N-N= 1.573913460108D+02 E-N=-1.877299143471D+03  KE= 6.549518732790D+02
 Symmetry A1   KE= 3.311322764765D+02
 Symmetry A2   KE= 2.600800501629D+01
 Symmetry B1   KE= 3.016148660446D+01
 Symmetry B2   KE= 2.676501051818D+02
 No NMR shielding tensors so no spin-rotation constants.
 Leave Link  601 at Wed Jun 24 00:00:53 2026, MaxMem=  1879048192 cpu:               0.3 elap:               0.1
 (Enter /CH/g16/l9999.exe)
 Unable to Open any file for archive entry.
 1\1\GINC-NODE0-CHCLUSTER\FOpt\RB3LYP\def2SVP\H6O1Si2\LS\24-Jun-2026\0\
 \#p B3LYP/def2SVP EmpiricalDispersion=GD3BJ opt SCRF=(SMD,Solvent=Tetr
 ahydrofuran) int=ultrafine\\disiloxane\\0,1\O,0.,0.,0.3375568764\Si,0.
 ,1.5898339028,0.8198745148\Si,0.,-1.5898339028,0.8198745148\H,1.213685
 1572,1.8844674114,1.6346711209\H,-1.2136851572,1.8844674114,1.63467112
 09\H,0.,2.4427810844,-0.3979951949\H,1.2136851572,-1.8844674114,1.6346
 711209\H,-1.2136851572,-1.8844674114,1.6346711209\H,0.,-2.4427810844,-
 0.3979951949\\Version=ES64L-G16RevC.02\State=1-A1\HF=-657.6894408\RMSD
 =5.703e-09\RMSF=2.801e-05\Dipole=0.,0.,0.2093336\Quadrupole=-0.5476143
 ,1.2766022,-0.7289879,0.,0.,0.\PG=C02V [C2(O1),SGV(H2Si2),X(H4)]\\@
 The archive entry for this job was punched.


 FOR THE NATURE OF THE CHEMICAL BOND
 IS THE PROBLEM AT THE HEART OF ALL CHEMISTRY.

                     -- BRYCE CRAWFORD, JR., 1953
 Job cpu time:       0 days  0 hours  1 minutes 17.3 seconds.
 Elapsed time:       0 days  0 hours  0 minutes 11.9 seconds.
 File lengths (MBytes):  RWF=     39 Int=      0 D2E=      0 Chk=      3 Scr=      1
 Normal termination of Gaussian 16 at Wed Jun 24 00:00:53 2026.
