 Entering Gaussian System, Link 0=/CH/g16/g16
 Initial command:
 /CH/g16/l1.exe "/tmp/g16_Me2O_2866645/Gau-2866659.inp" -scrdir="/tmp/g16_Me2O_2866645/"
 Default is to use a total of  96 processors:
                               96 via shared-memory
                                1 via Linda
 Entering Link 1 = /CH/g16/l1.exe PID=   2866666.
  
 Copyright (c) 1988-2021, Gaussian, Inc.  All Rights Reserved.
  
 This is part of the Gaussian(R) 16 program.  It is based on
 the Gaussian(R) 09 system (copyright 2009, Gaussian, Inc.),
 the Gaussian(R) 03 system (copyright 2003, Gaussian, Inc.),
 the Gaussian(R) 98 system (copyright 1998, Gaussian, Inc.),
 the Gaussian(R) 94 system (copyright 1995, Gaussian, Inc.),
 the Gaussian 92(TM) system (copyright 1992, Gaussian, Inc.),
 the Gaussian 90(TM) system (copyright 1990, Gaussian, Inc.),
 the Gaussian 88(TM) system (copyright 1988, Gaussian, Inc.),
 the Gaussian 86(TM) system (copyright 1986, Carnegie Mellon
 University), and the Gaussian 82(TM) system (copyright 1983,
 Carnegie Mellon University). Gaussian is a federally registered
 trademark of Gaussian, Inc.
  
 This software contains proprietary and confidential information,
 including trade secrets, belonging to Gaussian, Inc.
  
 This software is provided under written license and may be
 used, copied, transmitted, or stored only in accord with that
 written license.
  
 The following legend is applicable only to US Government
 contracts under FAR:
  
                    RESTRICTED RIGHTS LEGEND
  
 Use, reproduction and disclosure by the US Government is
 subject to restrictions as set forth in subparagraphs (a)
 and (c) of the Commercial Computer Software - Restricted
 Rights clause in FAR 52.227-19.
  
 Gaussian, Inc.
 340 Quinnipiac St., Bldg. 40, Wallingford CT 06492
  
  
 ---------------------------------------------------------------
 Warning -- This program may not be used in any manner that
 competes with the business of Gaussian, Inc. or will provide
 assistance to any competitor of Gaussian, Inc.  The licensee
 of this program is prohibited from giving any competitor of
 Gaussian, Inc. access to this program.  By using this program,
 the user acknowledges that Gaussian, Inc. is engaged in the
 business of creating and licensing software in the field of
 computational chemistry and represents and warrants to the
 licensee that it is not a competitor of Gaussian, Inc. and that
 it will not use this program in any manner prohibited above.
 ---------------------------------------------------------------
  

 Cite this work as:
 Gaussian 16, Revision C.02,
 M. J. Frisch, G. W. Trucks, H. B. Schlegel, G. E. Scuseria, 
 M. A. Robb, J. R. Cheeseman, G. Scalmani, V. Barone, 
 G. A. Petersson, H. Nakatsuji, X. Li, M. Caricato, A. V. Marenich, 
 J. Bloino, B. G. Janesko, R. Gomperts, B. Mennucci, H. P. Hratchian, 
 J. V. Ortiz, A. F. Izmaylov, J. L. Sonnenberg, D. Williams-Young, 
 F. Ding, F. Lipparini, F. Egidi, J. Goings, B. Peng, A. Petrone, 
 T. Henderson, D. Ranasinghe, V. G. Zakrzewski, J. Gao, N. Rega, 
 G. Zheng, W. Liang, M. Hada, M. Ehara, K. Toyota, R. Fukuda, 
 J. Hasegawa, M. Ishida, T. Nakajima, Y. Honda, O. Kitao, H. Nakai, 
 T. Vreven, K. Throssell, J. A. Montgomery, Jr., J. E. Peralta, 
 F. Ogliaro, M. J. Bearpark, J. J. Heyd, E. N. Brothers, K. N. Kudin, 
 V. N. Staroverov, T. A. Keith, R. Kobayashi, J. Normand, 
 K. Raghavachari, A. P. Rendell, J. C. Burant, S. S. Iyengar, 
 J. Tomasi, M. Cossi, J. M. Millam, M. Klene, C. Adamo, R. Cammi, 
 J. W. Ochterski, R. L. Martin, K. Morokuma, O. Farkas, 
 J. B. Foresman, and D. J. Fox, Gaussian, Inc., Wallingford CT, 2019.
 
 ******************************************
 Gaussian 16:  ES64L-G16RevC.02  7-Dec-2021
                24-Jun-2026 
 ******************************************
 %chk=Me2O.chk
 %nprocshared=8
 Will use up to    8 processors via shared memory.
 %mem=14GB
 ----------------------------------------------------------------------
 #p B3LYP/def2SVP EmpiricalDispersion=GD3BJ opt SCRF=(SMD,Solvent=Tetra
 hydrofuran) int=ultrafine
 ----------------------------------------------------------------------
 1/18=20,19=15,26=6,38=1/1,3;
 2/9=110,12=2,17=6,18=5,40=1/2;
 3/5=43,7=101,11=2,25=1,30=1,70=32201,71=1,72=20,74=-5,75=-5,124=41/1,2,3;
 4//1;
 5/5=2,38=5,53=20/2;
 6/7=2,8=2,9=2,10=2,28=1/1;
 7//1,2,3,16;
 1/18=20,19=15,26=6/3(2);
 2/9=110/2;
 99//99;
 2/9=110/2;
 3/5=43,7=101,11=2,25=1,30=1,70=32205,71=1,72=20,74=-5,75=-5,124=41/1,2,3;
 4/5=5,16=3,69=1/1;
 5/5=2,38=5,53=20/2;
 7//1,2,3,16;
 1/18=20,19=15,26=6/3(-5);
 2/9=110/2;
 6/7=2,8=2,9=2,10=2,19=2,28=1/1;
 99/9=1/99;
 Leave Link    1 at Wed Jun 24 00:00:40 2026, MaxMem=  1879048192 cpu:               4.4 elap:               0.1
 (Enter /CH/g16/l101.exe)
 ----
 Me2O
 ----
 Symbolic Z-matrix:
 Charge =  0 Multiplicity = 1
 O                     0.        0.        0. 
 C                     0.        1.2       0.65 
 C                     0.       -1.2       0.65 
 H                     0.89      1.25      1.28 
 H                    -0.89      1.25      1.28 
 H                     0.        2.03     -0.05 
 H                     0.89     -1.25      1.28 
 H                    -0.89     -1.25      1.28 
 H                     0.       -2.03     -0.05 
 
 ITRead=  0  0  0  0  0  0  0  0  0
 MicOpt= -1 -1 -1 -1 -1 -1 -1 -1 -1
 NAtoms=      9 NQM=        9 NQMF=       0 NMMI=      0 NMMIF=      0
                NMic=       0 NMicF=      0.
                    Isotopes and Nuclear Properties:
 (Nuclear quadrupole moments (NQMom) in fm**2, nuclear magnetic moments (NMagM)
  in nuclear magnetons)

  Atom         1           2           3           4           5           6           7           8           9
 IAtWgt=          16          12          12           1           1           1           1           1           1
 AtmWgt=  15.9949146  12.0000000  12.0000000   1.0078250   1.0078250   1.0078250   1.0078250   1.0078250   1.0078250
 NucSpn=           0           0           0           1           1           1           1           1           1
 AtZEff=  -0.0000000  -0.0000000  -0.0000000  -0.0000000  -0.0000000  -0.0000000  -0.0000000  -0.0000000  -0.0000000
 NQMom=    0.0000000   0.0000000   0.0000000   0.0000000   0.0000000   0.0000000   0.0000000   0.0000000   0.0000000
 NMagM=    0.0000000   0.0000000   0.0000000   2.7928460   2.7928460   2.7928460   2.7928460   2.7928460   2.7928460
 AtZNuc=   8.0000000   6.0000000   6.0000000   1.0000000   1.0000000   1.0000000   1.0000000   1.0000000   1.0000000
 Leave Link  101 at Wed Jun 24 00:00:41 2026, MaxMem=  1879048192 cpu:               0.4 elap:               0.4
 (Enter /CH/g16/l103.exe)

 GradGradGradGradGradGradGradGradGradGradGradGradGradGradGradGradGradGrad
 Berny optimization.
 Initialization pass.
                           ----------------------------
                           !    Initial Parameters    !
                           ! (Angstroms and Degrees)  !
 --------------------------                            --------------------------
 ! Name  Definition              Value          Derivative Info.                !
 --------------------------------------------------------------------------------
 ! R1    R(1,2)                  1.3647         estimate D2E/DX2                !
 ! R2    R(1,3)                  1.3647         estimate D2E/DX2                !
 ! R3    R(2,4)                  1.0916         estimate D2E/DX2                !
 ! R4    R(2,5)                  1.0916         estimate D2E/DX2                !
 ! R5    R(2,6)                  1.0858         estimate D2E/DX2                !
 ! R6    R(3,7)                  1.0916         estimate D2E/DX2                !
 ! R7    R(3,8)                  1.0916         estimate D2E/DX2                !
 ! R8    R(3,9)                  1.0858         estimate D2E/DX2                !
 ! A1    A(2,1,3)              123.1141         estimate D2E/DX2                !
 ! A2    A(1,2,4)              108.3709         estimate D2E/DX2                !
 ! A3    A(1,2,5)              108.3709         estimate D2E/DX2                !
 ! A4    A(1,2,6)              111.4137         estimate D2E/DX2                !
 ! A5    A(4,2,5)              109.2436         estimate D2E/DX2                !
 ! A6    A(4,2,6)              109.699          estimate D2E/DX2                !
 ! A7    A(5,2,6)              109.699          estimate D2E/DX2                !
 ! A8    A(1,3,7)              108.3709         estimate D2E/DX2                !
 ! A9    A(1,3,8)              108.3709         estimate D2E/DX2                !
 ! A10   A(1,3,9)              111.4137         estimate D2E/DX2                !
 ! A11   A(7,3,8)              109.2436         estimate D2E/DX2                !
 ! A12   A(7,3,9)              109.699          estimate D2E/DX2                !
 ! A13   A(8,3,9)              109.699          estimate D2E/DX2                !
 ! D1    D(3,1,2,4)             59.2193         estimate D2E/DX2                !
 ! D2    D(3,1,2,5)            -59.2193         estimate D2E/DX2                !
 ! D3    D(3,1,2,6)            180.0            estimate D2E/DX2                !
 ! D4    D(2,1,3,7)            -59.2193         estimate D2E/DX2                !
 ! D5    D(2,1,3,8)             59.2193         estimate D2E/DX2                !
 ! D6    D(2,1,3,9)            180.0            estimate D2E/DX2                !
 --------------------------------------------------------------------------------
 Trust Radius=3.00D-01 FncErr=5.00D-06 GrdErr=5.00D-06 EigMax=2.50D+02 EigMin=1.00D-04
 Number of steps in this run=     37 maximum allowed number of steps=    100.
 GradGradGradGradGradGradGradGradGradGradGradGradGradGradGradGradGradGrad

 Leave Link  103 at Wed Jun 24 00:00:41 2026, MaxMem=  1879048192 cpu:               0.0 elap:               0.0
 (Enter /CH/g16/l202.exe)
                          Input orientation:                          
 ---------------------------------------------------------------------
 Center     Atomic      Atomic             Coordinates (Angstroms)
 Number     Number       Type             X           Y           Z
 ---------------------------------------------------------------------
      1          8           0        0.000000    0.000000    0.000000
      2          6           0        0.000000    1.200000    0.650000
      3          6           0        0.000000   -1.200000    0.650000
      4          1           0        0.890000    1.250000    1.280000
      5          1           0       -0.890000    1.250000    1.280000
      6          1           0        0.000000    2.030000   -0.050000
      7          1           0        0.890000   -1.250000    1.280000
      8          1           0       -0.890000   -1.250000    1.280000
      9          1           0        0.000000   -2.030000   -0.050000
 ---------------------------------------------------------------------
                    Distance matrix (angstroms):
                    1          2          3          4          5
     1  O    0.000000
     2  C    1.364734   0.000000
     3  C    1.364734   2.400000   0.000000
     4  H    1.998249   1.091559   2.681697   0.000000
     5  H    1.998249   1.091559   2.681697   1.780000   0.000000
     6  H    2.030616   1.085772   3.304981   1.780281   1.780281
     7  H    1.998249   2.681697   1.091559   2.500000   3.068941
     8  H    1.998249   2.681697   1.091559   3.068941   2.500000
     9  H    2.030616   3.304981   1.085772   3.649575   3.649575
                    6          7          8          9
     6  H    0.000000
     7  H    3.649575   0.000000
     8  H    3.649575   1.780000   0.000000
     9  H    4.060000   1.780281   1.780281   0.000000
 Stoichiometry    C2H6O
 Framework group  C2V[C2(O),SGV(C2H2),X(H4)]
 Deg. of freedom     7
 Full point group                 C2V     NOp   4
 Largest Abelian subgroup         C2V     NOp   4
 Largest concise Abelian subgroup C2V     NOp   4
                         Standard orientation:                         
 ---------------------------------------------------------------------
 Center     Atomic      Atomic             Coordinates (Angstroms)
 Number     Number       Type             X           Y           Z
 ---------------------------------------------------------------------
      1          8           0       -0.000000   -0.000000    0.493077
      2          6           0        0.000000    1.200000   -0.156923
      3          6           0       -0.000000   -1.200000   -0.156923
      4          1           0       -0.890000    1.250000   -0.786923
      5          1           0        0.890000    1.250000   -0.786923
      6          1           0        0.000000    2.030000    0.543077
      7          1           0       -0.890000   -1.250000   -0.786923
      8          1           0        0.890000   -1.250000   -0.786923
      9          1           0       -0.000000   -2.030000    0.543077
 ---------------------------------------------------------------------
 Rotational constants (GHZ):          47.3504521           9.6523020           8.9218381
 Leave Link  202 at Wed Jun 24 00:00:41 2026, MaxMem=  1879048192 cpu:               0.0 elap:               0.0
 (Enter /CH/g16/l301.exe)
 Standard basis: def2SVP (5D, 7F)
 Ernie: Thresh=  0.10000D-02 Tol=  0.10000D-05 Strict=F.
 There are    28 symmetry adapted cartesian basis functions of A1  symmetry.
 There are    11 symmetry adapted cartesian basis functions of A2  symmetry.
 There are    13 symmetry adapted cartesian basis functions of B1  symmetry.
 There are    23 symmetry adapted cartesian basis functions of B2  symmetry.
 There are    26 symmetry adapted basis functions of A1  symmetry.
 There are    11 symmetry adapted basis functions of A2  symmetry.
 There are    13 symmetry adapted basis functions of B1  symmetry.
 There are    22 symmetry adapted basis functions of B2  symmetry.
    72 basis functions,   117 primitive gaussians,    75 cartesian basis functions
    13 alpha electrons       13 beta electrons
       nuclear repulsion energy        85.2084339117 Hartrees.
 IExCor=  402 DFT=T Ex+Corr=B3LYP ExCW=0 ScaHFX=  0.200000
 ScaDFX=  0.800000  0.720000  1.000000  0.810000 ScalE2=  1.000000  1.000000
 IRadAn=      5 IRanWt=     -1 IRanGd=            0 ICorTp=0 IEmpDi=141
 NAtoms=    9 NActive=    9 NUniq=    4 SFac= 4.00D+00 NAtFMM=   60 NAOKFM=F Big=F
 Integral buffers will be    131072 words long.
 Raffenetti 2 integral format.
 Two-electron integral symmetry is turned on.
 R6Disp:  Grimme-D3(BJ) Dispersion energy=       -0.0067350192 Hartrees.
 Nuclear repulsion after empirical dispersion term =       85.2016988925 Hartrees.
 ------------------------------------------------------------------------------
 Polarizable Continuum Model (PCM)
 =================================
 Model                : PCM.
 Atomic radii         : SMD-Coulomb.
 Polarization charges : Total charges.
 Charge compensation  : None.
 Solution method      : On-the-fly selection.
 Cavity type          : VdW (van der Waals Surface) (Alpha=1.000).
 Cavity algorithm     : GePol (No added spheres)
                        Default sphere list used, NSphG=    9.
                        Lebedev-Laikov grids with approx.  5.0 points / Ang**2.
                        Smoothing algorithm: York/Karplus (Gamma=1.0000).
                        Polarization charges: spherical gaussians, with
                                              point-specific exponents (IZeta= 3).
                        Self-potential: point-specific (ISelfS= 7).
                        Self-field    : sphere-specific E.n sum rule (ISelfD= 2).
 1st derivatives      : Analytical E(r).r(x)/FMM algorithm (CHGder, D1EAlg=3).
                        Cavity 1st derivative terms included.
 Solvent              : TetraHydroFuran, Eps=   7.425700 Eps(inf)=   1.974025
 ------------------------------------------------------------------------------
 Spheres list:
 ISph  on   Nord     Re0    Alpha      Xe            Ye            Ze
    1   O      1    2.2940  1.000     -0.000000     -0.000000      0.493077
    2   C      2    1.8500  1.000      0.000000      1.200000     -0.156923
    3   C      3    1.8500  1.000     -0.000000     -1.200000     -0.156923
    4   H      4    1.2000  1.000     -0.890000      1.250000     -0.786923
    5   H      5    1.2000  1.000      0.890000      1.250000     -0.786923
    6   H      6    1.2000  1.000      0.000000      2.030000      0.543077
    7   H      7    1.2000  1.000     -0.890000     -1.250000     -0.786923
    8   H      8    1.2000  1.000      0.890000     -1.250000     -0.786923
    9   H      9    1.2000  1.000     -0.000000     -2.030000      0.543077
 ------------------------------------------------------------------------------
 GePol: Number of generator spheres                  =       9
 GePol: Total number of spheres                      =       9
 GePol: Number of exposed spheres                    =       9 (100.00%)
 GePol: Number of points                             =     754
 GePol: Average weight of points                     =       0.12
 GePol: Minimum weight of points                     =   0.29D-05
 GePol: Maximum weight of points                     =    0.17992
 GePol: Number of points with low weight             =      38
 GePol: Fraction of low-weight points (<1% of avg)   =       5.04%
 GePol: Cavity surface area                          =     90.695 Ang**2
 GePol: Cavity volume                                =     72.774 Ang**3
 ------------------------------------------------------------------------------
 Atomic radii for non-electrostatic terms: SMD-CDS.
 ------------------------------------------------------------------------------
 PCM non-electrostatic energy =         0.0009253121 Hartrees.
 Nuclear repulsion after PCM non-electrostatic terms =       85.2026242046 Hartrees.
 Leave Link  301 at Wed Jun 24 00:00:41 2026, MaxMem=  1879048192 cpu:               0.1 elap:               0.0
 (Enter /CH/g16/l302.exe)
 NPDir=0 NMtPBC=     1 NCelOv=     1 NCel=       1 NClECP=     1 NCelD=      1
         NCelK=      1 NCelE2=     1 NClLst=     1 CellRange=     0.0.
 One-electron integrals computed using PRISM.
 One-electron integral symmetry used in STVInt
   4 Symmetry operations used in ECPInt.
 ECPInt:  NShTT=     666 NPrTT=    2268 LenC2=     667 LenP2D=    2069.
 LDataN:  DoStor=T MaxTD1= 4 Len=   56
 NBasis=    72 RedAO= T EigKep=  8.92D-03  NBF=    26    11    13    22
 NBsUse=    72 1.00D-06 EigRej= -1.00D+00 NBFU=    26    11    13    22
 Precomputing XC quadrature grid using
 IXCGrd= 4 IRadAn=           5 IRanWt=          -1 IRanGd=           0 AccXCQ= 0.00D+00.
 Generated NRdTot=       0 NPtTot=           0 NUsed=           0 NTot=          32
 NSgBfM=    75    75    75    75    75 MxSgAt=     9 MxSgA2=     9.
 Leave Link  302 at Wed Jun 24 00:00:41 2026, MaxMem=  1879048192 cpu:               0.3 elap:               0.1
 (Enter /CH/g16/l303.exe)
 DipDrv:  MaxL=1.
 Leave Link  303 at Wed Jun 24 00:00:41 2026, MaxMem=  1879048192 cpu:               0.1 elap:               0.0
 (Enter /CH/g16/l401.exe)
 ExpMin= 1.22D-01 ExpMax= 2.27D+03 ExpMxC= 3.41D+02 IAcc=3 IRadAn=         5 AccDes= 0.00D+00
 Harris functional with IExCor=  402 and IRadAn=       5 diagonalized for initial guess.
 HarFok:  IExCor=  402 AccDes= 0.00D+00 IRadAn=         5 IDoV= 1 UseB2=F ITyADJ=14
 ICtDFT=  3500011 ScaDFX=  1.000000  1.000000  1.000000  1.000000
 FoFCou: FMM=F IPFlag=           0 FMFlag=      100000 FMFlg1=           0
         NFxFlg=           0 DoJE=T BraDBF=F KetDBF=T FulRan=T
         wScrn=  0.000000 ICntrl=       500 IOpCl=  0 I1Cent=   200000004 NGrid=           0
         NMat0=    1 NMatS0=      1 NMatT0=    0 NMatD0=    1 NMtDS0=    0 NMtDT0=    0
 Petite list used in FoFCou.
 Harris En= -154.925797589270    
 JPrj=0 DoOrth=F DoCkMO=F.
 Initial guess orbital symmetries:
       Occupied  (A1) (A1) (B2) (A1) (B2) (A1) (B2) (A1) (B1) (A2)
                 (B2) (A1) (B1)
       Virtual   (A1) (A1) (B2) (B1) (A1) (B2) (A2) (B2) (A1) (A1)
                 (A2) (B2) (B1) (B2) (B1) (A1) (B2) (A1) (A1) (A2)
                 (B2) (B2) (A1) (B1) (A2) (B2) (A1) (B1) (B2) (B1)
                 (A2) (A1) (A2) (B1) (A1) (B2) (A1) (B2) (A2) (A1)
                 (B1) (B2) (B2) (A1) (B1) (A2) (A1) (B2) (A1) (A1)
                 (B2) (A2) (B1) (B2) (B1) (A1) (A2) (A1) (B2)
 The electronic state of the initial guess is 1-A1.
 Leave Link  401 at Wed Jun 24 00:00:41 2026, MaxMem=  1879048192 cpu:               0.5 elap:               0.1
 (Enter /CH/g16/l502.exe)
 Keep R1 ints in memory in symmetry-blocked form, NReq=10644973.
 FoFCou: FMM=F IPFlag=           0 FMFlag=           0 FMFlg1=           0
         NFxFlg=           0 DoJE=F BraDBF=F KetDBF=F FulRan=T
         wScrn=  0.000000 ICntrl=       600 IOpCl=  0 I1Cent=           0 NGrid=           0
         NMat0=    1 NMatS0=   2628 NMatT0=    0 NMatD0=    1 NMtDS0=    0 NMtDT0=    0
 Petite list used in FoFCou.
 Closed shell SCF:
 Using DIIS extrapolation, IDIIS=  1040.
 NGot=  1879048192 LenX=  1878149604 LenY=  1878143538
 Requested convergence on RMS density matrix=1.00D-08 within 128 cycles.
 Requested convergence on MAX density matrix=1.00D-06.
 Requested convergence on             energy=1.00D-06.
 No special actions if energy rises.

 Cycle   1  Pass 1  IDiag  1:
 Inv3:  Mode=1 IEnd=     1705548.
 Iteration    1 A*A^-1 deviation from unit magnitude is 3.33D-15 for     94.
 Iteration    1 A*A^-1 deviation from orthogonality  is 1.50D-15 for    479     98.
 Iteration    1 A^-1*A deviation from unit magnitude is 3.11D-15 for    181.
 Iteration    1 A^-1*A deviation from orthogonality  is 1.23D-15 for    387    103.
 E= -154.821170802700    
 DIIS: error= 3.23D-02 at cycle   1 NSaved=   1.
 NSaved= 1 IEnMin= 1 EnMin= -154.821170802700     IErMin= 1 ErrMin= 3.23D-02
 ErrMax= 3.23D-02  0.00D+00 EMaxC= 1.00D-01 BMatC= 8.16D-02 BMatP= 8.16D-02
 IDIUse=3 WtCom= 6.77D-01 WtEn= 3.23D-01
 Coeff-Com:  0.100D+01
 Coeff-En:   0.100D+01
 Coeff:      0.100D+01
 Gap=     0.269 Goal=   None    Shift=    0.000
 GapD=    0.269 DampG=1.000 DampE=0.500 DampFc=0.5000 IDamp=-1.
 Damping current iteration by 5.00D-01
 RMSDP=9.39D-03 MaxDP=1.12D-01              OVMax= 1.58D-01

 Cycle   2  Pass 1  IDiag  1:
 E= -154.860467422359     Delta-E=       -0.039296619659 Rises=F Damp=T
 DIIS: error= 8.41D-03 at cycle   2 NSaved=   2.
 NSaved= 2 IEnMin= 2 EnMin= -154.860467422359     IErMin= 2 ErrMin= 8.41D-03
 ErrMax= 8.41D-03  0.00D+00 EMaxC= 1.00D-01 BMatC= 3.95D-03 BMatP= 8.16D-02
 IDIUse=3 WtCom= 9.16D-01 WtEn= 8.41D-02
 Coeff-Com:  0.735D-01 0.927D+00
 Coeff-En:   0.882D-01 0.912D+00
 Coeff:      0.747D-01 0.925D+00
 Gap=     0.321 Goal=   None    Shift=    0.000
 RMSDP=1.59D-03 MaxDP=1.28D-02 DE=-3.93D-02 OVMax= 9.67D-02

 Cycle   3  Pass 1  IDiag  1:
 E= -154.906992006606     Delta-E=       -0.046524584247 Rises=F Damp=F
 DIIS: error= 4.74D-03 at cycle   3 NSaved=   3.
 NSaved= 3 IEnMin= 3 EnMin= -154.906992006606     IErMin= 3 ErrMin= 4.74D-03
 ErrMax= 4.74D-03  0.00D+00 EMaxC= 1.00D-01 BMatC= 2.09D-03 BMatP= 3.95D-03
 IDIUse=3 WtCom= 9.53D-01 WtEn= 4.74D-02
 Coeff-Com: -0.170D-02 0.404D+00 0.598D+00
 Coeff-En:   0.000D+00 0.000D+00 0.100D+01
 Coeff:     -0.162D-02 0.385D+00 0.617D+00
 Gap=     0.307 Goal=   None    Shift=    0.000
 RMSDP=5.60D-04 MaxDP=1.12D-02 DE=-4.65D-02 OVMax= 1.24D-02

 Cycle   4  Pass 1  IDiag  1:
 E= -154.908277894363     Delta-E=       -0.001285887757 Rises=F Damp=F
 DIIS: error= 1.65D-03 at cycle   4 NSaved=   4.
 NSaved= 4 IEnMin= 4 EnMin= -154.908277894363     IErMin= 4 ErrMin= 1.65D-03
 ErrMax= 1.65D-03  0.00D+00 EMaxC= 1.00D-01 BMatC= 3.57D-04 BMatP= 2.09D-03
 IDIUse=3 WtCom= 9.84D-01 WtEn= 1.65D-02
 Coeff-Com: -0.688D-02 0.887D-01 0.311D+00 0.607D+00
 Coeff-En:   0.000D+00 0.000D+00 0.118D+00 0.882D+00
 Coeff:     -0.677D-02 0.873D-01 0.308D+00 0.612D+00
 Gap=     0.309 Goal=   None    Shift=    0.000
 RMSDP=1.88D-04 MaxDP=3.40D-03 DE=-1.29D-03 OVMax= 3.37D-03

 Cycle   5  Pass 1  IDiag  1:
 E= -154.908549722906     Delta-E=       -0.000271828543 Rises=F Damp=F
 DIIS: error= 1.95D-04 at cycle   5 NSaved=   5.
 NSaved= 5 IEnMin= 5 EnMin= -154.908549722906     IErMin= 5 ErrMin= 1.95D-04
 ErrMax= 1.95D-04  0.00D+00 EMaxC= 1.00D-01 BMatC= 3.97D-06 BMatP= 3.57D-04
 IDIUse=3 WtCom= 9.98D-01 WtEn= 1.95D-03
 Coeff-Com: -0.109D-02 0.473D-03 0.401D-01 0.152D+00 0.808D+00
 Coeff-En:   0.000D+00 0.000D+00 0.000D+00 0.000D+00 0.100D+01
 Coeff:     -0.109D-02 0.472D-03 0.401D-01 0.152D+00 0.809D+00
 Gap=     0.309 Goal=   None    Shift=    0.000
 RMSDP=1.93D-05 MaxDP=2.91D-04 DE=-2.72D-04 OVMax= 4.02D-04

 Cycle   6  Pass 1  IDiag  1:
 E= -154.908552740586     Delta-E=       -0.000003017680 Rises=F Damp=F
 DIIS: error= 1.22D-05 at cycle   6 NSaved=   6.
 NSaved= 6 IEnMin= 6 EnMin= -154.908552740586     IErMin= 6 ErrMin= 1.22D-05
 ErrMax= 1.22D-05  0.00D+00 EMaxC= 1.00D-01 BMatC= 1.21D-08 BMatP= 3.97D-06
 IDIUse=1 WtCom= 1.00D+00 WtEn= 0.00D+00
 Coeff-Com: -0.247D-04-0.762D-03 0.309D-02 0.161D-01 0.117D+00 0.864D+00
 Coeff:     -0.247D-04-0.762D-03 0.309D-02 0.161D-01 0.117D+00 0.864D+00
 Gap=     0.309 Goal=   None    Shift=    0.000
 RMSDP=2.20D-06 MaxDP=2.16D-05 DE=-3.02D-06 OVMax= 3.61D-05

 Cycle   7  Pass 1  IDiag  1:
 E= -154.908552752691     Delta-E=       -0.000000012105 Rises=F Damp=F
 DIIS: error= 2.55D-06 at cycle   7 NSaved=   7.
 NSaved= 7 IEnMin= 7 EnMin= -154.908552752691     IErMin= 7 ErrMin= 2.55D-06
 ErrMax= 2.55D-06  0.00D+00 EMaxC= 1.00D-01 BMatC= 4.08D-10 BMatP= 1.21D-08
 IDIUse=1 WtCom= 1.00D+00 WtEn= 0.00D+00
 Coeff-Com:  0.217D-04-0.105D-03-0.644D-03-0.156D-02-0.487D-02 0.141D+00
 Coeff-Com:  0.866D+00
 Coeff:      0.217D-04-0.105D-03-0.644D-03-0.156D-02-0.487D-02 0.141D+00
 Coeff:      0.866D+00
 Gap=     0.309 Goal=   None    Shift=    0.000
 RMSDP=2.51D-07 MaxDP=2.95D-06 DE=-1.21D-08 OVMax= 5.14D-06

 Cycle   8  Pass 1  IDiag  1:
 E= -154.908552753091     Delta-E=       -0.000000000400 Rises=F Damp=F
 DIIS: error= 1.66D-07 at cycle   8 NSaved=   8.
 NSaved= 8 IEnMin= 8 EnMin= -154.908552753091     IErMin= 8 ErrMin= 1.66D-07
 ErrMax= 1.66D-07  0.00D+00 EMaxC= 1.00D-01 BMatC= 2.08D-12 BMatP= 4.08D-10
 IDIUse=1 WtCom= 1.00D+00 WtEn= 0.00D+00
 Coeff-Com: -0.361D-06 0.103D-04-0.612D-04-0.216D-03-0.164D-02-0.514D-02
 Coeff-Com:  0.121D-01 0.995D+00
 Coeff:     -0.361D-06 0.103D-04-0.612D-04-0.216D-03-0.164D-02-0.514D-02
 Coeff:      0.121D-01 0.995D+00
 Gap=     0.309 Goal=   None    Shift=    0.000
 RMSDP=2.53D-08 MaxDP=4.39D-07 DE=-4.00D-10 OVMax= 5.16D-07

 Cycle   9  Pass 1  IDiag  1:
 E= -154.908552753093     Delta-E=       -0.000000000003 Rises=F Damp=F
 DIIS: error= 1.83D-08 at cycle   9 NSaved=   9.
 NSaved= 9 IEnMin= 9 EnMin= -154.908552753093     IErMin= 9 ErrMin= 1.83D-08
 ErrMax= 1.83D-08  0.00D+00 EMaxC= 1.00D-01 BMatC= 1.62D-14 BMatP= 2.08D-12
 IDIUse=1 WtCom= 1.00D+00 WtEn= 0.00D+00
 Coeff-Com: -0.386D-06 0.117D-05 0.262D-06-0.614D-05-0.594D-04-0.684D-03
 Coeff-Com: -0.242D-02 0.438D-01 0.959D+00
 Coeff:     -0.386D-06 0.117D-05 0.262D-06-0.614D-05-0.594D-04-0.684D-03
 Coeff:     -0.242D-02 0.438D-01 0.959D+00
 Gap=     0.309 Goal=   None    Shift=    0.000
 RMSDP=1.99D-09 MaxDP=2.65D-08 DE=-2.50D-12 OVMax= 3.57D-08

 Error on total polarization charges =  0.02229
 SCF Done:  E(RB3LYP) =  -154.908552753     A.U. after    9 cycles
            NFock=  9  Conv=0.20D-08     -V/T= 2.0088
 KE= 1.535577231050D+02 PE=-5.317425260338D+02 EE= 1.380736259711D+02
 SMD-CDS (non-electrostatic) energy       (kcal/mol) =       0.58
 (included in total energy above)
 Leave Link  502 at Wed Jun 24 00:00:42 2026, MaxMem=  1879048192 cpu:               5.2 elap:               0.8
 (Enter /CH/g16/l601.exe)
 Copying SCF densities to generalized density rwf, IOpCl= 0 IROHF=0.

 **********************************************************************

            Population analysis using the SCF Density.

 **********************************************************************

 Orbital symmetries:
       Occupied  (A1) (A1) (B2) (A1) (B2) (A1) (B2) (B1) (A1) (A2)
                 (B2) (A1) (B1)
       Virtual   (A1) (B2) (A1) (B1) (A1) (B2) (A2) (B2) (A1) (A2)
                 (B1) (A1) (B2) (A1) (B2) (B1) (B2) (A1) (B2) (A1)
                 (A2) (B2) (A1) (B1) (A2) (B2) (A1) (B1) (B2) (B1)
                 (A2) (A1) (A2) (B1) (A1) (B2) (A1) (B2) (A2) (A1)
                 (B1) (B2) (A1) (B2) (B1) (A2) (A1) (B2) (A1) (A1)
                 (B2) (A2) (B1) (B2) (B1) (A1) (A2) (A1) (B2)
 The electronic state is 1-A1.
 Alpha  occ. eigenvalues --  -19.11149 -10.21729 -10.21729  -1.02817  -0.72498
 Alpha  occ. eigenvalues --   -0.61272  -0.47952  -0.47229  -0.47123  -0.39226
 Alpha  occ. eigenvalues --   -0.38662  -0.28689  -0.24013
 Alpha virt. eigenvalues --    0.06876   0.11574   0.12580   0.13638   0.15727
 Alpha virt. eigenvalues --    0.16119   0.17186   0.25244   0.41980   0.46085
 Alpha virt. eigenvalues --    0.47478   0.49107   0.49738   0.64161   0.64359
 Alpha virt. eigenvalues --    0.64690   0.66544   0.67989   0.68662   0.68772
 Alpha virt. eigenvalues --    0.69410   0.86358   0.96169   0.97879   1.18387
 Alpha virt. eigenvalues --    1.20230   1.28394   1.40149   1.48182   1.53030
 Alpha virt. eigenvalues --    1.53501   1.54629   1.69915   1.74411   1.74525
 Alpha virt. eigenvalues --    1.78368   1.84590   1.85364   1.87759   1.87949
 Alpha virt. eigenvalues --    1.97137   2.04428   2.21343   2.21467   2.30726
 Alpha virt. eigenvalues --    2.34334   2.40504   2.43322   2.69309   2.72398
 Alpha virt. eigenvalues --    2.72862   2.84576   2.87393   2.88361   2.93450
 Alpha virt. eigenvalues --    3.16552   3.20022   3.46451   3.50191
          Condensed to atoms (all electrons):
               1          2          3          4          5          6
     1  O    7.929212   0.350363   0.350363  -0.044138  -0.044138  -0.026405
     2  C    0.350363   4.317785  -0.037349   0.385592   0.385592   0.398642
     3  C    0.350363  -0.037349   4.317785  -0.003839  -0.003839   0.005786
     4  H   -0.044138   0.385592  -0.003839   0.739071  -0.044527  -0.032055
     5  H   -0.044138   0.385592  -0.003839  -0.044527   0.739071  -0.032055
     6  H   -0.026405   0.398642   0.005786  -0.032055  -0.032055   0.660994
     7  H   -0.044138  -0.003839   0.385592   0.019682  -0.005536  -0.000548
     8  H   -0.044138  -0.003839   0.385592  -0.005536   0.019682  -0.000548
     9  H   -0.026405   0.005786   0.398642  -0.000548  -0.000548  -0.000236
               7          8          9
     1  O   -0.044138  -0.044138  -0.026405
     2  C   -0.003839  -0.003839   0.005786
     3  C    0.385592   0.385592   0.398642
     4  H    0.019682  -0.005536  -0.000548
     5  H   -0.005536   0.019682  -0.000548
     6  H   -0.000548  -0.000548  -0.000236
     7  H    0.739071  -0.044527  -0.032055
     8  H   -0.044527   0.739071  -0.032055
     9  H   -0.032055  -0.032055   0.660994
 Mulliken charges:
               1
     1  O   -0.400574
     2  C    0.201265
     3  C    0.201265
     4  H   -0.013701
     5  H   -0.013701
     6  H    0.026425
     7  H   -0.013701
     8  H   -0.013701
     9  H    0.026425
 Sum of Mulliken charges =  -0.00000
 Mulliken charges with hydrogens summed into heavy atoms:
               1
     1  O   -0.400574
     2  C    0.200287
     3  C    0.200287
 Electronic spatial extent (au):  <R**2>=            186.7809
 Charge=             -0.0000 electrons
 Dipole moment (field-independent basis, Debye):
    X=             -0.0000    Y=             -0.0000    Z=             -1.1051  Tot=              1.1051
 Quadrupole moment (field-independent basis, Debye-Ang):
   XX=            -20.0664   YY=            -16.9058   ZZ=            -20.9373
   XY=              0.0000   XZ=             -0.0000   YZ=             -0.0000
 Traceless Quadrupole moment (field-independent basis, Debye-Ang):
   XX=             -0.7632   YY=              2.3974   ZZ=             -1.6341
   XY=              0.0000   XZ=             -0.0000   YZ=             -0.0000
 Octapole moment (field-independent basis, Debye-Ang**2):
  XXX=              0.0000  YYY=              0.0000  ZZZ=              1.9481  XYY=              0.0000
  XXY=             -0.0000  XXZ=              0.2747  XZZ=              0.0000  YZZ=              0.0000
  YYZ=              2.6251  XYZ=              0.0000
 Hexadecapole moment (field-independent basis, Debye-Ang**3):
 XXXX=            -34.2314 YYYY=           -162.1359 ZZZZ=            -44.1836 XXXY=             -0.0000
 XXXZ=             -0.0000 YYYX=             -0.0000 YYYZ=              0.0000 ZZZX=             -0.0000
 ZZZY=              0.0000 XXYY=            -35.1226 XXZZ=            -12.6606 YYZZ=            -34.4243
 XXYZ=              0.0000 YYXZ=             -0.0000 ZZXY=             -0.0000
 N-N= 8.520262420457D+01 E-N=-5.317425252016D+02  KE= 1.535577231050D+02
 Symmetry A1   KE= 1.043003930516D+02
 Symmetry A2   KE= 2.090583600348D+00
 Symmetry B1   KE= 6.610395514239D+00
 Symmetry B2   KE= 4.055635093882D+01
 No NMR shielding tensors so no spin-rotation constants.
 Leave Link  601 at Wed Jun 24 00:00:42 2026, MaxMem=  1879048192 cpu:               0.3 elap:               0.1
 (Enter /CH/g16/l701.exe)
 ... and contract with generalized density number  0.
 Compute integral first derivatives.
 R6Disp: Adding Grimme-D3(BJ) dispersion energy 1st derivatives to the gradient.
   4 Symmetry operations used in ECPInt.
 ECPInt:  NShTT=     666 NPrTT=    2268 LenC2=     667 LenP2D=    2069.
 LDataN:  DoStor=T MaxTD1= 5 Len=  102
 D1PCM: PCM CHGder 1st derivatives, ID1Alg=3 FixD1E=F DoIter=F DoCFld=F I1PDM=0.
 GePol: Maximum number of non-zero 1st derivatives   =     364
 Leave Link  701 at Wed Jun 24 00:00:42 2026, MaxMem=  1879048192 cpu:               1.4 elap:               0.2
 (Enter /CH/g16/l702.exe)
 L702 exits ... SP integral derivatives will be done elsewhere.
 Leave Link  702 at Wed Jun 24 00:00:42 2026, MaxMem=  1879048192 cpu:               0.0 elap:               0.0
 (Enter /CH/g16/l703.exe)
 Integral derivatives from FoFJK, PRISM(SPDF).
 Compute integral first derivatives, UseDBF=F ICtDFT=           0.
 Calling FoFJK, ICntrl=      2127 FMM=F ISym2X=1 I1Cent= 0 IOpClX= 0 NMat=1 NMatS=1 NMatT=0.
 FoFJK:  IHMeth= 1 ICntrl=    2127 DoSepK=F KAlg= 0 I1Cent=           0 FoldK=F
 IRaf=         0 NMat=       1 IRICut=       1 DoRegI=T DoRafI=F ISym2E= 1 IDoP0=0 IntGTp=1.
 FoFCou: FMM=F IPFlag=           0 FMFlag=      100000 FMFlg1=         800
         NFxFlg=           0 DoJE=F BraDBF=F KetDBF=F FulRan=T
         wScrn=  0.000000 ICntrl=      2127 IOpCl=  0 I1Cent=           0 NGrid=           0
         NMat0=    1 NMatS0=      1 NMatT0=    0 NMatD0=    1 NMtDS0=    0 NMtDT0=    0
 Petite list used in FoFCou.
 Leave Link  703 at Wed Jun 24 00:00:42 2026, MaxMem=  1879048192 cpu:               0.7 elap:               0.1
 (Enter /CH/g16/l716.exe)
 Dipole        =-2.57029412D-17 0.00000000D+00-4.34764492D-01
 ***** Axes restored to original set *****
 -------------------------------------------------------------------
 Center     Atomic                   Forces (Hartrees/Bohr)
 Number     Number              X              Y              Z
 -------------------------------------------------------------------
      1        8           0.000000000    0.000000000   -0.070093926
      2        6           0.000000000   -0.015543723    0.021003904
      3        6          -0.000000000    0.015543723    0.021003904
      4        1           0.008745406    0.010126695    0.011501204
      5        1          -0.008745406    0.010126695    0.011501204
      6        1          -0.000000000    0.004906510   -0.008959350
      7        1           0.008745406   -0.010126695    0.011501204
      8        1          -0.008745406   -0.010126695    0.011501204
      9        1          -0.000000000   -0.004906510   -0.008959350
 -------------------------------------------------------------------
 Cartesian Forces:  Max     0.070093926 RMS     0.016923168
 Leave Link  716 at Wed Jun 24 00:00:42 2026, MaxMem=  1879048192 cpu:               0.0 elap:               0.0
 (Enter /CH/g16/l103.exe)

 GradGradGradGradGradGradGradGradGradGradGradGradGradGradGradGradGradGrad
 Berny optimization.
 FormGI is forming the generalized inverse of G from B-inverse, IUseBI=4.
 Internal  Forces:  Max     0.038162305 RMS     0.013869990
 Search for a local minimum.
 Step number   1 out of a maximum of   37
 All quantities printed in internal units (Hartrees-Bohrs-Radians)
 RMS Force = .13870D-01 SwitMx=.10000D-02 MixMth= 1
 Mixed Optimization -- RFO/linear search
 Second derivative matrix not updated -- first step.
 ITU=  0
     Eigenvalues ---    0.02158   0.02158   0.10519   0.10519   0.10847
     Eigenvalues ---    0.10847   0.16000   0.16000   0.16000   0.16000
     Eigenvalues ---    0.16000   0.16000   0.25000   0.34633   0.34633
     Eigenvalues ---    0.34633   0.34633   0.35306   0.35306   0.52002
     Eigenvalues ---    0.52002
 RFO step:  Lambda=-1.90097623D-02 EMin= 2.15827658D-02
 Linear search not attempted -- first point.
 Iteration  1 RMS(Cart)=  0.04737910 RMS(Int)=  0.00295219
 Iteration  2 RMS(Cart)=  0.00431935 RMS(Int)=  0.00201253
 Iteration  3 RMS(Cart)=  0.00000313 RMS(Int)=  0.00201253
 Iteration  4 RMS(Cart)=  0.00000002 RMS(Int)=  0.00201253
 ITry= 1 IFail=0 DXMaxC= 1.79D-01 DCOld= 1.00D+10 DXMaxT= 3.00D-01 DXLimC= 3.00D+00 Rises=F
 ClnCor:  largest displacement from symmetrization is 8.94D-14 for atom     9.
 Variable       Old X    -DE/DX   Delta X   Delta X   Delta X     New X
                                 (Linear)    (Quad)   (Total)
    R1        2.57897   0.02515   0.00000   0.04665   0.04665   2.62563
    R2        2.57897   0.02515   0.00000   0.04665   0.04665   2.62563
    R3        2.06275   0.01423   0.00000   0.03896   0.03896   2.10170
    R4        2.06275   0.01423   0.00000   0.03896   0.03896   2.10170
    R5        2.05181   0.00953   0.00000   0.02560   0.02560   2.07742
    R6        2.06275   0.01423   0.00000   0.03896   0.03896   2.10170
    R7        2.06275   0.01423   0.00000   0.03896   0.03896   2.10170
    R8        2.05181   0.00953   0.00000   0.02560   0.02560   2.07742
    A1        2.14875  -0.03816   0.00000  -0.14186  -0.14186   2.00688
    A2        1.89143   0.01510   0.00000   0.08669   0.08471   1.97614
    A3        1.89143   0.01510   0.00000   0.08669   0.08471   1.97614
    A4        1.94454  -0.01214   0.00000  -0.07270  -0.07181   1.87272
    A5        1.90666  -0.00854   0.00000  -0.03723  -0.04133   1.86533
    A6        1.91461  -0.00458   0.00000  -0.03045  -0.02963   1.88498
    A7        1.91461  -0.00458   0.00000  -0.03045  -0.02963   1.88498
    A8        1.89143   0.01510   0.00000   0.08669   0.08471   1.97614
    A9        1.89143   0.01510   0.00000   0.08669   0.08471   1.97614
   A10        1.94454  -0.01214   0.00000  -0.07270  -0.07181   1.87272
   A11        1.90666  -0.00854   0.00000  -0.03723  -0.04133   1.86533
   A12        1.91461  -0.00458   0.00000  -0.03045  -0.02963   1.88498
   A13        1.91461  -0.00458   0.00000  -0.03045  -0.02963   1.88498
    D1        1.03357   0.00333   0.00000   0.02613   0.02987   1.06344
    D2       -1.03357  -0.00333   0.00000  -0.02613  -0.02987  -1.06344
    D3        3.14159   0.00000   0.00000   0.00000   0.00000   3.14159
    D4       -1.03357  -0.00333   0.00000  -0.02613  -0.02987  -1.06344
    D5        1.03357   0.00333   0.00000   0.02613   0.02987   1.06344
    D6        3.14159  -0.00000   0.00000  -0.00000   0.00000   3.14159
         Item               Value     Threshold  Converged?
 Maximum Force            0.038162     0.000450     NO 
 RMS     Force            0.013870     0.000300     NO 
 Maximum Displacement     0.178964     0.001800     NO 
 RMS     Displacement     0.046940     0.001200     NO 
 Predicted change in Energy=-1.032937D-02
 Lowest energy point so far.  Saving SCF results.
 GradGradGradGradGradGradGradGradGradGradGradGradGradGradGradGradGradGrad

 Leave Link  103 at Wed Jun 24 00:00:42 2026, MaxMem=  1879048192 cpu:               0.0 elap:               0.0
 (Enter /CH/g16/l202.exe)
                          Input orientation:                          
 ---------------------------------------------------------------------
 Center     Atomic      Atomic             Coordinates (Angstroms)
 Number     Number       Type             X           Y           Z
 ---------------------------------------------------------------------
      1          8           0        0.000000   -0.000000   -0.094704
      2          6           0       -0.000000    1.171736    0.651975
      3          6           0        0.000000   -1.171736    0.651975
      4          1           0        0.893308    1.274727    1.306440
      5          1           0       -0.893308    1.274727    1.306440
      6          1           0       -0.000000    2.011468   -0.057502
      7          1           0        0.893308   -1.274727    1.306440
      8          1           0       -0.893308   -1.274727    1.306440
      9          1           0        0.000000   -2.011468   -0.057502
 ---------------------------------------------------------------------
                    Distance matrix (angstroms):
                    1          2          3          4          5
     1  O    0.000000
     2  C    1.389422   0.000000
     3  C    1.389422   2.343472   0.000000
     4  H    2.094309   1.112173   2.685424   0.000000
     5  H    2.094309   1.112173   2.685424   1.786616   0.000000
     6  H    2.011812   1.099321   3.261310   1.789168   1.789168
     7  H    2.094309   2.685424   1.112173   2.549454   3.113151
     8  H    2.094309   2.685424   1.112173   3.113151   2.549454
     9  H    2.011812   3.261310   1.099321   3.668434   3.668434
                    6          7          8          9
     6  H    0.000000
     7  H    3.668434   0.000000
     8  H    3.668434   1.786616   0.000000
     9  H    4.022935   1.789168   1.789168   0.000000
 Stoichiometry    C2H6O
 Framework group  C2V[C2(O),SGV(C2H2),X(H4)]
 Deg. of freedom     7
 Full point group                 C2V     NOp   4
 RotChk:  IX=0 Diff= 8.90D-16
 Largest Abelian subgroup         C2V     NOp   4
 Largest concise Abelian subgroup C2V     NOp   4
                         Standard orientation:                         
 ---------------------------------------------------------------------
 Center     Atomic      Atomic             Coordinates (Angstroms)
 Number     Number       Type             X           Y           Z
 ---------------------------------------------------------------------
      1          8           0        0.000000    0.000000    0.563043
      2          6           0       -0.000000    1.171736   -0.183636
      3          6           0       -0.000000   -1.171736   -0.183636
      4          1           0       -0.893308    1.274727   -0.838100
      5          1           0        0.893308    1.274727   -0.838100
      6          1           0        0.000000    2.011468    0.525842
      7          1           0       -0.893308   -1.274727   -0.838100
      8          1           0        0.893308   -1.274727   -0.838100
      9          1           0       -0.000000   -2.011468    0.525842
 ---------------------------------------------------------------------
 Rotational constants (GHZ):          40.8451083           9.9339269           8.8954573
 Leave Link  202 at Wed Jun 24 00:00:42 2026, MaxMem=  1879048192 cpu:               0.0 elap:               0.0
 (Enter /CH/g16/l301.exe)
 Standard basis: def2SVP (5D, 7F)
 Ernie: Thresh=  0.10000D-02 Tol=  0.10000D-05 Strict=F.
 There are    28 symmetry adapted cartesian basis functions of A1  symmetry.
 There are    11 symmetry adapted cartesian basis functions of A2  symmetry.
 There are    13 symmetry adapted cartesian basis functions of B1  symmetry.
 There are    23 symmetry adapted cartesian basis functions of B2  symmetry.
 There are    26 symmetry adapted basis functions of A1  symmetry.
 There are    11 symmetry adapted basis functions of A2  symmetry.
 There are    13 symmetry adapted basis functions of B1  symmetry.
 There are    22 symmetry adapted basis functions of B2  symmetry.
    72 basis functions,   117 primitive gaussians,    75 cartesian basis functions
    13 alpha electrons       13 beta electrons
       nuclear repulsion energy        84.0971766946 Hartrees.
 IExCor=  402 DFT=T Ex+Corr=B3LYP ExCW=0 ScaHFX=  0.200000
 ScaDFX=  0.800000  0.720000  1.000000  0.810000 ScalE2=  1.000000  1.000000
 IRadAn=      5 IRanWt=     -1 IRanGd=            0 ICorTp=0 IEmpDi=141
 NAtoms=    9 NActive=    9 NUniq=    4 SFac= 4.00D+00 NAtFMM=   60 NAOKFM=F Big=F
 Integral buffers will be    131072 words long.
 Raffenetti 2 integral format.
 Two-electron integral symmetry is turned on.
 R6Disp:  Grimme-D3(BJ) Dispersion energy=       -0.0067247405 Hartrees.
 Nuclear repulsion after empirical dispersion term =       84.0904519540 Hartrees.
 ------------------------------------------------------------------------------
 Polarizable Continuum Model (PCM)
 =================================
 Model                : PCM.
 Atomic radii         : SMD-Coulomb.
 Polarization charges : Total charges.
 Charge compensation  : None.
 Solution method      : On-the-fly selection.
 Cavity type          : VdW (van der Waals Surface) (Alpha=1.000).
 Cavity algorithm     : GePol (No added spheres)
                        Default sphere list used, NSphG=    9.
                        Lebedev-Laikov grids with approx.  5.0 points / Ang**2.
                        Smoothing algorithm: York/Karplus (Gamma=1.0000).
                        Polarization charges: spherical gaussians, with
                                              point-specific exponents (IZeta= 3).
                        Self-potential: point-specific (ISelfS= 7).
                        Self-field    : sphere-specific E.n sum rule (ISelfD= 2).
 1st derivatives      : Analytical E(r).r(x)/FMM algorithm (CHGder, D1EAlg=3).
                        Cavity 1st derivative terms included.
 Solvent              : TetraHydroFuran, Eps=   7.425700 Eps(inf)=   1.974025
 ------------------------------------------------------------------------------
 Spheres list:
 ISph  on   Nord     Re0    Alpha      Xe            Ye            Ze
    1   O      1    2.2940  1.000      0.000000      0.000000      0.563043
    2   C      2    1.8500  1.000      0.000000      1.171736     -0.183636
    3   C      3    1.8500  1.000     -0.000000     -1.171736     -0.183636
    4   H      4    1.2000  1.000     -0.893308      1.274727     -0.838100
    5   H      5    1.2000  1.000      0.893308      1.274727     -0.838100
    6   H      6    1.2000  1.000     -0.000000      2.011468      0.525842
    7   H      7    1.2000  1.000     -0.893308     -1.274727     -0.838100
    8   H      8    1.2000  1.000      0.893308     -1.274727     -0.838100
    9   H      9    1.2000  1.000     -0.000000     -2.011468      0.525842
 ------------------------------------------------------------------------------
 GePol: Number of generator spheres                  =       9
 GePol: Total number of spheres                      =       9
 GePol: Number of exposed spheres                    =       9 (100.00%)
 GePol: Number of points                             =     754
 GePol: Average weight of points                     =       0.12
 GePol: Minimum weight of points                     =   0.77D-06
 GePol: Maximum weight of points                     =    0.17992
 GePol: Number of points with low weight             =      44
 GePol: Fraction of low-weight points (<1% of avg)   =       5.84%
 GePol: Cavity surface area                          =     92.018 Ang**2
 GePol: Cavity volume                                =     73.792 Ang**3
 ------------------------------------------------------------------------------
 Atomic radii for non-electrostatic terms: SMD-CDS.
 ------------------------------------------------------------------------------
 PCM non-electrostatic energy =         0.0006347947 Hartrees.
 Nuclear repulsion after PCM non-electrostatic terms =       84.0910867487 Hartrees.
 Leave Link  301 at Wed Jun 24 00:00:42 2026, MaxMem=  1879048192 cpu:               0.0 elap:               0.0
 (Enter /CH/g16/l302.exe)
 NPDir=0 NMtPBC=     1 NCelOv=     1 NCel=       1 NClECP=     1 NCelD=      1
         NCelK=      1 NCelE2=     1 NClLst=     1 CellRange=     0.0.
 One-electron integrals computed using PRISM.
 One-electron integral symmetry used in STVInt
   4 Symmetry operations used in ECPInt.
 ECPInt:  NShTT=     666 NPrTT=    2268 LenC2=     667 LenP2D=    2065.
 LDataN:  DoStor=T MaxTD1= 4 Len=   56
 NBasis=    72 RedAO= T EigKep=  9.48D-03  NBF=    26    11    13    22
 NBsUse=    72 1.00D-06 EigRej= -1.00D+00 NBFU=    26    11    13    22
 Precomputing XC quadrature grid using
 IXCGrd= 4 IRadAn=           5 IRanWt=          -1 IRanGd=           0 AccXCQ= 0.00D+00.
 Generated NRdTot=       0 NPtTot=           0 NUsed=           0 NTot=          32
 NSgBfM=    75    75    75    75    75 MxSgAt=     9 MxSgA2=     9.
 Leave Link  302 at Wed Jun 24 00:00:42 2026, MaxMem=  1879048192 cpu:               0.3 elap:               0.1
 (Enter /CH/g16/l303.exe)
 DipDrv:  MaxL=1.
 Leave Link  303 at Wed Jun 24 00:00:42 2026, MaxMem=  1879048192 cpu:               0.0 elap:               0.0
 (Enter /CH/g16/l401.exe)
 Initial guess from the checkpoint file:  "Me2O.chk"
 B after Tr=     0.000000   -0.000000   -0.000000
         Rot=    1.000000   -0.000000    0.000000    0.000000 Ang=   0.00 deg.
 Guess basis will be translated and rotated to current coordinates.
 JPrj=2 DoOrth=T DoCkMO=T.
 Initial guess orbital symmetries:
       Occupied  (A1) (A1) (B2) (A1) (B2) (A1) (B2) (B1) (A1) (A2)
                 (B2) (A1) (B1)
       Virtual   (A1) (B2) (A1) (B1) (A1) (B2) (A2) (B2) (A1) (A2)
                 (B1) (A1) (B2) (A1) (B2) (B1) (B2) (A1) (B2) (A1)
                 (A2) (B2) (A1) (B1) (A2) (B2) (A1) (B1) (B2) (B1)
                 (A2) (A1) (A2) (B1) (A1) (B2) (A1) (B2) (A2) (A1)
                 (B1) (B2) (A1) (B2) (B1) (A2) (A1) (B2) (A1) (A1)
                 (B2) (A2) (B1) (B2) (B1) (A1) (A2) (A1) (B2)
 The electronic state of the initial guess is 1-A1.
 Generating alternative initial guess.
 ExpMin= 1.22D-01 ExpMax= 2.27D+03 ExpMxC= 3.41D+02 IAcc=3 IRadAn=         5 AccDes= 0.00D+00
 Harris functional with IExCor=  402 and IRadAn=       5 diagonalized for initial guess.
 HarFok:  IExCor=  402 AccDes= 0.00D+00 IRadAn=         5 IDoV= 1 UseB2=F ITyADJ=14
 ICtDFT=  3500011 ScaDFX=  1.000000  1.000000  1.000000  1.000000
 FoFCou: FMM=F IPFlag=           0 FMFlag=      100000 FMFlg1=           0
         NFxFlg=           0 DoJE=T BraDBF=F KetDBF=T FulRan=T
         wScrn=  0.000000 ICntrl=       500 IOpCl=  0 I1Cent=   200000004 NGrid=           0
         NMat0=    1 NMatS0=      1 NMatT0=    0 NMatD0=    1 NMtDS0=    0 NMtDT0=    0
 Petite list used in FoFCou.
 Harris En= -154.927345018819    
 Leave Link  401 at Wed Jun 24 00:00:43 2026, MaxMem=  1879048192 cpu:               0.5 elap:               0.1
 (Enter /CH/g16/l502.exe)
 Keep R1 ints in memory in symmetry-blocked form, NReq=10644973.
 FoFCou: FMM=F IPFlag=           0 FMFlag=           0 FMFlg1=           0
         NFxFlg=           0 DoJE=F BraDBF=F KetDBF=F FulRan=T
         wScrn=  0.000000 ICntrl=       600 IOpCl=  0 I1Cent=           0 NGrid=           0
         NMat0=    1 NMatS0=   2628 NMatT0=    0 NMatD0=    1 NMtDS0=    0 NMtDT0=    0
 Petite list used in FoFCou.
 Closed shell SCF:
 Using DIIS extrapolation, IDIIS=  1040.
 NGot=  1879048192 LenX=  1878149604 LenY=  1878143538
 Requested convergence on RMS density matrix=1.00D-08 within 128 cycles.
 Requested convergence on MAX density matrix=1.00D-06.
 Requested convergence on             energy=1.00D-06.
 No special actions if energy rises.

 Cycle   1  Pass 1  IDiag  1:
 Inv3:  Mode=1 IEnd=     1705548.
 Iteration    1 A*A^-1 deviation from unit magnitude is 3.44D-15 for     83.
 Iteration    1 A*A^-1 deviation from orthogonality  is 1.33D-15 for    510    111.
 Iteration    1 A^-1*A deviation from unit magnitude is 3.11D-15 for     83.
 Iteration    1 A^-1*A deviation from orthogonality  is 2.49D-15 for    390    105.
 E= -154.913654813577    
 DIIS: error= 5.64D-03 at cycle   1 NSaved=   1.
 NSaved= 1 IEnMin= 1 EnMin= -154.913654813577     IErMin= 1 ErrMin= 5.64D-03
 ErrMax= 5.64D-03  0.00D+00 EMaxC= 1.00D-01 BMatC= 3.09D-03 BMatP= 3.09D-03
 IDIUse=3 WtCom= 9.44D-01 WtEn= 5.64D-02
 Coeff-Com:  0.100D+01
 Coeff-En:   0.100D+01
 Coeff:      0.100D+01
 Gap=     0.320 Goal=   None    Shift=    0.000
 GapD=    0.320 DampG=1.000 DampE=1.000 DampFc=1.0000 IDamp=-1.
 RMSDP=1.25D-03 MaxDP=1.25D-02              OVMax= 2.49D-02

 Cycle   2  Pass 1  IDiag  1:
 E= -154.917757695367     Delta-E=       -0.004102881790 Rises=F Damp=F
 DIIS: error= 8.28D-04 at cycle   2 NSaved=   2.
 NSaved= 2 IEnMin= 2 EnMin= -154.917757695367     IErMin= 2 ErrMin= 8.28D-04
 ErrMax= 8.28D-04  0.00D+00 EMaxC= 1.00D-01 BMatC= 6.78D-05 BMatP= 3.09D-03
 IDIUse=3 WtCom= 9.92D-01 WtEn= 8.28D-03
 Coeff-Com: -0.139D-01 0.101D+01
 Coeff-En:   0.000D+00 0.100D+01
 Coeff:     -0.138D-01 0.101D+01
 Gap=     0.320 Goal=   None    Shift=    0.000
 RMSDP=2.28D-04 MaxDP=4.01D-03 DE=-4.10D-03 OVMax= 5.01D-03

 Cycle   3  Pass 1  IDiag  1:
 E= -154.917772821297     Delta-E=       -0.000015125929 Rises=F Damp=F
 DIIS: error= 1.05D-03 at cycle   3 NSaved=   3.
 NSaved= 3 IEnMin= 3 EnMin= -154.917772821297     IErMin= 2 ErrMin= 8.28D-04
 ErrMax= 1.05D-03  0.00D+00 EMaxC= 1.00D-01 BMatC= 7.41D-05 BMatP= 6.78D-05
 IDIUse=3 WtCom= 9.90D-01 WtEn= 1.05D-02
 Coeff-Com: -0.274D-01 0.531D+00 0.496D+00
 Coeff-En:   0.000D+00 0.442D+00 0.558D+00
 Coeff:     -0.271D-01 0.530D+00 0.497D+00
 Gap=     0.320 Goal=   None    Shift=    0.000
 RMSDP=9.99D-05 MaxDP=2.01D-03 DE=-1.51D-05 OVMax= 2.24D-03

 Cycle   4  Pass 1  IDiag  1:
 E= -154.917845379801     Delta-E=       -0.000072558504 Rises=F Damp=F
 DIIS: error= 1.12D-04 at cycle   4 NSaved=   4.
 NSaved= 4 IEnMin= 4 EnMin= -154.917845379801     IErMin= 4 ErrMin= 1.12D-04
 ErrMax= 1.12D-04  0.00D+00 EMaxC= 1.00D-01 BMatC= 8.38D-07 BMatP= 6.78D-05
 IDIUse=3 WtCom= 9.99D-01 WtEn= 1.12D-03
 Coeff-Com: -0.829D-02 0.132D+00 0.151D+00 0.725D+00
 Coeff-En:   0.000D+00 0.000D+00 0.000D+00 0.100D+01
 Coeff:     -0.828D-02 0.132D+00 0.150D+00 0.726D+00
 Gap=     0.319 Goal=   None    Shift=    0.000
 RMSDP=1.44D-05 MaxDP=3.39D-04 DE=-7.26D-05 OVMax= 3.04D-04

 Cycle   5  Pass 1  IDiag  1:
 E= -154.917845716876     Delta-E=       -0.000000337076 Rises=F Damp=F
 DIIS: error= 6.38D-05 at cycle   5 NSaved=   5.
 NSaved= 5 IEnMin= 5 EnMin= -154.917845716876     IErMin= 5 ErrMin= 6.38D-05
 ErrMax= 6.38D-05  0.00D+00 EMaxC= 1.00D-01 BMatC= 3.81D-07 BMatP= 8.38D-07
 IDIUse=1 WtCom= 1.00D+00 WtEn= 0.00D+00
 Coeff-Com: -0.125D-02 0.688D-02 0.203D-01 0.418D+00 0.556D+00
 Coeff:     -0.125D-02 0.688D-02 0.203D-01 0.418D+00 0.556D+00
 Gap=     0.320 Goal=   None    Shift=    0.000
 RMSDP=8.07D-06 MaxDP=1.51D-04 DE=-3.37D-07 OVMax= 1.71D-04

 Cycle   6  Pass 1  IDiag  1:
 E= -154.917845997393     Delta-E=       -0.000000280517 Rises=F Damp=F
 DIIS: error= 8.57D-06 at cycle   6 NSaved=   6.
 NSaved= 6 IEnMin= 6 EnMin= -154.917845997393     IErMin= 6 ErrMin= 8.57D-06
 ErrMax= 8.57D-06  0.00D+00 EMaxC= 1.00D-01 BMatC= 5.21D-09 BMatP= 3.81D-07
 IDIUse=1 WtCom= 1.00D+00 WtEn= 0.00D+00
 Coeff-Com:  0.151D-03-0.589D-02-0.359D-02 0.691D-01 0.170D+00 0.770D+00
 Coeff:      0.151D-03-0.589D-02-0.359D-02 0.691D-01 0.170D+00 0.770D+00
 Gap=     0.320 Goal=   None    Shift=    0.000
 RMSDP=1.03D-06 MaxDP=1.40D-05 DE=-2.81D-07 OVMax= 1.83D-05

 Cycle   7  Pass 1  IDiag  1:
 E= -154.917846002459     Delta-E=       -0.000000005065 Rises=F Damp=F
 DIIS: error= 3.86D-07 at cycle   7 NSaved=   7.
 NSaved= 7 IEnMin= 7 EnMin= -154.917846002459     IErMin= 7 ErrMin= 3.86D-07
 ErrMax= 3.86D-07  0.00D+00 EMaxC= 1.00D-01 BMatC= 1.01D-11 BMatP= 5.21D-09
 IDIUse=1 WtCom= 1.00D+00 WtEn= 0.00D+00
 Coeff-Com:  0.241D-04-0.706D-03-0.511D-03 0.417D-02 0.136D-01 0.780D-01
 Coeff-Com:  0.905D+00
 Coeff:      0.241D-04-0.706D-03-0.511D-03 0.417D-02 0.136D-01 0.780D-01
 Coeff:      0.905D+00
 Gap=     0.320 Goal=   None    Shift=    0.000
 RMSDP=7.30D-08 MaxDP=9.27D-07 DE=-5.07D-09 OVMax= 1.95D-06

 Cycle   8  Pass 1  IDiag  1:
 E= -154.917846002471     Delta-E=       -0.000000000012 Rises=F Damp=F
 DIIS: error= 9.39D-08 at cycle   8 NSaved=   8.
 NSaved= 8 IEnMin= 8 EnMin= -154.917846002471     IErMin= 8 ErrMin= 9.39D-08
 ErrMax= 9.39D-08  0.00D+00 EMaxC= 1.00D-01 BMatC= 7.46D-13 BMatP= 1.01D-11
 IDIUse=1 WtCom= 1.00D+00 WtEn= 0.00D+00
 Coeff-Com:  0.895D-06 0.274D-04-0.196D-04-0.128D-02-0.287D-02-0.933D-02
 Coeff-Com:  0.176D+00 0.838D+00
 Coeff:      0.895D-06 0.274D-04-0.196D-04-0.128D-02-0.287D-02-0.933D-02
 Coeff:      0.176D+00 0.838D+00
 Gap=     0.320 Goal=   None    Shift=    0.000
 RMSDP=1.23D-08 MaxDP=1.29D-07 DE=-1.24D-11 OVMax= 2.06D-07

 Cycle   9  Pass 1  IDiag  1:
 E= -154.917846002472     Delta-E=       -0.000000000001 Rises=F Damp=F
 DIIS: error= 8.89D-09 at cycle   9 NSaved=   9.
 NSaved= 9 IEnMin= 9 EnMin= -154.917846002472     IErMin= 9 ErrMin= 8.89D-09
 ErrMax= 8.89D-09  0.00D+00 EMaxC= 1.00D-01 BMatC= 4.12D-15 BMatP= 7.46D-13
 IDIUse=1 WtCom= 1.00D+00 WtEn= 0.00D+00
 Coeff-Com: -0.341D-06 0.165D-04 0.869D-05-0.144D-03-0.448D-03-0.196D-02
 Coeff-Com:  0.300D-02 0.552D-01 0.944D+00
 Coeff:     -0.341D-06 0.165D-04 0.869D-05-0.144D-03-0.448D-03-0.196D-02
 Coeff:      0.300D-02 0.552D-01 0.944D+00
 Gap=     0.320 Goal=   None    Shift=    0.000
 RMSDP=1.74D-09 MaxDP=1.71D-08 DE=-1.25D-12 OVMax= 4.00D-08

 Error on total polarization charges =  0.02251
 SCF Done:  E(RB3LYP) =  -154.917846002     A.U. after    9 cycles
            NFock=  9  Conv=0.17D-08     -V/T= 2.0102
 KE= 1.533535149788D+02 PE=-5.293694226961D+02 EE= 1.370069749661D+02
 SMD-CDS (non-electrostatic) energy       (kcal/mol) =       0.40
 (included in total energy above)
 Leave Link  502 at Wed Jun 24 00:00:43 2026, MaxMem=  1879048192 cpu:               5.5 elap:               0.8
 (Enter /CH/g16/l701.exe)
 ... and contract with generalized density number  0.
 Compute integral first derivatives.
 R6Disp: Adding Grimme-D3(BJ) dispersion energy 1st derivatives to the gradient.
   4 Symmetry operations used in ECPInt.
 ECPInt:  NShTT=     666 NPrTT=    2268 LenC2=     667 LenP2D=    2065.
 LDataN:  DoStor=T MaxTD1= 5 Len=  102
 D1PCM: PCM CHGder 1st derivatives, ID1Alg=3 FixD1E=F DoIter=F DoCFld=F I1PDM=0.
 GePol: Maximum number of non-zero 1st derivatives   =     344
 Leave Link  701 at Wed Jun 24 00:00:44 2026, MaxMem=  1879048192 cpu:               1.4 elap:               0.2
 (Enter /CH/g16/l702.exe)
 L702 exits ... SP integral derivatives will be done elsewhere.
 Leave Link  702 at Wed Jun 24 00:00:44 2026, MaxMem=  1879048192 cpu:               0.0 elap:               0.0
 (Enter /CH/g16/l703.exe)
 Integral derivatives from FoFJK, PRISM(SPDF).
 Compute integral first derivatives, UseDBF=F ICtDFT=           0.
 Calling FoFJK, ICntrl=      2127 FMM=F ISym2X=1 I1Cent= 0 IOpClX= 0 NMat=1 NMatS=1 NMatT=0.
 FoFJK:  IHMeth= 1 ICntrl=    2127 DoSepK=F KAlg= 0 I1Cent=           0 FoldK=F
 IRaf=         0 NMat=       1 IRICut=       1 DoRegI=T DoRafI=F ISym2E= 1 IDoP0=0 IntGTp=1.
 FoFCou: FMM=F IPFlag=           0 FMFlag=      100000 FMFlg1=         800
         NFxFlg=           0 DoJE=F BraDBF=F KetDBF=F FulRan=T
         wScrn=  0.000000 ICntrl=      2127 IOpCl=  0 I1Cent=           0 NGrid=           0
         NMat0=    1 NMatS0=      1 NMatT0=    0 NMatD0=    1 NMtDS0=    0 NMtDT0=    0
 Petite list used in FoFCou.
 Leave Link  703 at Wed Jun 24 00:00:44 2026, MaxMem=  1879048192 cpu:               0.7 elap:               0.1
 (Enter /CH/g16/l716.exe)
 Dipole        =-2.14140801D-17-1.77635684D-15-5.31819313D-01
 ***** Axes restored to original set *****
 -------------------------------------------------------------------
 Center     Atomic                   Forces (Hartrees/Bohr)
 Number     Number              X              Y              Z
 -------------------------------------------------------------------
      1        8           0.000000000    0.000000000   -0.006574575
      2        6          -0.000000000    0.006614985    0.005003616
      3        6          -0.000000000   -0.006614985    0.005003616
      4        1          -0.000008689   -0.001602208   -0.000979107
      5        1           0.000008689   -0.001602208   -0.000979107
      6        1          -0.000000000    0.002065499    0.000241886
      7        1          -0.000008689    0.001602208   -0.000979107
      8        1           0.000008689    0.001602208   -0.000979107
      9        1          -0.000000000   -0.002065499    0.000241886
 -------------------------------------------------------------------
 Cartesian Forces:  Max     0.006614985 RMS     0.002745813
 Leave Link  716 at Wed Jun 24 00:00:44 2026, MaxMem=  1879048192 cpu:               0.0 elap:               0.0
 (Enter /CH/g16/l103.exe)

 GradGradGradGradGradGradGradGradGradGradGradGradGradGradGradGradGradGrad
 Berny optimization.
 Using GEDIIS/GDIIS optimizer.
 FormGI is forming the generalized inverse of G from B-inverse, IUseBI=4.
 Internal  Forces:  Max     0.006384706 RMS     0.002633970
 Search for a local minimum.
 Step number   2 out of a maximum of   37
 All quantities printed in internal units (Hartrees-Bohrs-Radians)
 RMS Force = .26340D-02 SwitMx=.10000D-02 MixMth= 1
 Mixed Optimization -- RFO/linear search
 Update second derivatives using D2CorX and points    1    2
 DE= -9.29D-03 DEPred=-1.03D-02 R= 9.00D-01
 TightC=F SS=  1.41D+00  RLast= 2.85D-01 DXNew= 5.0454D-01 8.5578D-01
 Trust test= 9.00D-01 RLast= 2.85D-01 DXMaxT set to 5.05D-01
 ITU=  1  0
 Use linear search instead of GDIIS.
     Eigenvalues ---    0.02158   0.02158   0.10044   0.10478   0.10647
     Eigenvalues ---    0.10647   0.15949   0.16000   0.16000   0.16000
     Eigenvalues ---    0.16000   0.19627   0.22904   0.34633   0.34633
     Eigenvalues ---    0.34633   0.34925   0.35306   0.35389   0.49287
     Eigenvalues ---    0.52002
 RFO step:  Lambda=-7.16581913D-04 EMin= 2.15827658D-02
 Quartic linear search produced a step of -0.01139.
 Iteration  1 RMS(Cart)=  0.03066077 RMS(Int)=  0.00050513
 Iteration  2 RMS(Cart)=  0.00069022 RMS(Int)=  0.00004509
 Iteration  3 RMS(Cart)=  0.00000019 RMS(Int)=  0.00004509
 ITry= 1 IFail=0 DXMaxC= 6.23D-02 DCOld= 1.00D+10 DXMaxT= 5.05D-01 DXLimC= 3.00D+00 Rises=F
 ClnCor:  largest displacement from symmetrization is 5.03D-13 for atom     5.
 Variable       Old X    -DE/DX   Delta X   Delta X   Delta X     New X
                                 (Linear)    (Quad)   (Total)
    R1        2.62563   0.00638  -0.00053   0.01478   0.01425   2.63988
    R2        2.62563   0.00638  -0.00053   0.01478   0.01425   2.63988
    R3        2.10170  -0.00073  -0.00044   0.00016  -0.00029   2.10142
    R4        2.10170  -0.00073  -0.00044   0.00016  -0.00029   2.10142
    R5        2.07742   0.00142  -0.00029   0.00544   0.00515   2.08256
    R6        2.10170  -0.00073  -0.00044   0.00016  -0.00029   2.10142
    R7        2.10170  -0.00073  -0.00044   0.00016  -0.00029   2.10142
    R8        2.07742   0.00142  -0.00029   0.00544   0.00515   2.08256
    A1        2.00688  -0.00629   0.00162  -0.03294  -0.03132   1.97557
    A2        1.97614  -0.00263  -0.00097  -0.01256  -0.01357   1.96257
    A3        1.97614  -0.00263  -0.00097  -0.01256  -0.01357   1.96257
    A4        1.87272   0.00342   0.00082   0.01920   0.02004   1.89276
    A5        1.86533   0.00153   0.00047   0.00290   0.00329   1.86861
    A6        1.88498   0.00025   0.00034   0.00200   0.00236   1.88734
    A7        1.88498   0.00025   0.00034   0.00200   0.00236   1.88734
    A8        1.97614  -0.00263  -0.00097  -0.01256  -0.01357   1.96257
    A9        1.97614  -0.00263  -0.00097  -0.01256  -0.01357   1.96257
   A10        1.87272   0.00342   0.00082   0.01920   0.02004   1.89276
   A11        1.86533   0.00153   0.00047   0.00290   0.00329   1.86861
   A12        1.88498   0.00025   0.00034   0.00200   0.00236   1.88734
   A13        1.88498   0.00025   0.00034   0.00200   0.00236   1.88734
    D1        1.06344  -0.00101  -0.00034  -0.00776  -0.00801   1.05543
    D2       -1.06344   0.00101   0.00034   0.00776   0.00801  -1.05543
    D3        3.14159   0.00000   0.00000   0.00000   0.00000   3.14159
    D4       -1.06344   0.00101   0.00034   0.00776   0.00801  -1.05543
    D5        1.06344  -0.00101  -0.00034  -0.00776  -0.00801   1.05543
    D6        3.14159  -0.00000   0.00000  -0.00000   0.00000   3.14159
         Item               Value     Threshold  Converged?
 Maximum Force            0.006385     0.000450     NO 
 RMS     Force            0.002634     0.000300     NO 
 Maximum Displacement     0.062253     0.001800     NO 
 RMS     Displacement     0.031034     0.001200     NO 
 Predicted change in Energy=-3.600220D-04
 Lowest energy point so far.  Saving SCF results.
 GradGradGradGradGradGradGradGradGradGradGradGradGradGradGradGradGradGrad

 Leave Link  103 at Wed Jun 24 00:00:44 2026, MaxMem=  1879048192 cpu:               0.0 elap:               0.0
 (Enter /CH/g16/l202.exe)
                          Input orientation:                          
 ---------------------------------------------------------------------
 Center     Atomic      Atomic             Coordinates (Angstroms)
 Number     Number       Type             X           Y           Z
 ---------------------------------------------------------------------
      1          8           0        0.000000   -0.000000   -0.121969
      2          6           0       -0.000000    1.166196    0.647119
      3          6           0        0.000000   -1.166196    0.647119
      4          1           0        0.894273    1.241784    1.303742
      5          1           0       -0.894273    1.241784    1.303742
      6          1           0       -0.000000    2.032857   -0.033618
      7          1           0        0.894273   -1.241784    1.303742
      8          1           0       -0.894273   -1.241784    1.303742
      9          1           0        0.000000   -2.032857   -0.033618
 ---------------------------------------------------------------------
                    Distance matrix (angstroms):
                    1          2          3          4          5
     1  O    0.000000
     2  C    1.396965   0.000000
     3  C    1.396965   2.332393   0.000000
     4  H    2.091508   1.112021   2.651272   0.000000
     5  H    2.091508   1.112021   2.651272   1.788545   0.000000
     6  H    2.034776   1.102045   3.270680   1.792778   1.792778
     7  H    2.091508   2.651272   1.112021   2.483568   3.060556
     8  H    2.091508   2.651272   1.112021   3.060556   2.483568
     9  H    2.034776   3.270680   1.102045   3.648497   3.648497
                    6          7          8          9
     6  H    0.000000
     7  H    3.648497   0.000000
     8  H    3.648497   1.788545   0.000000
     9  H    4.065714   1.792778   1.792778   0.000000
 Stoichiometry    C2H6O
 Framework group  C2V[C2(O),SGV(C2H2),X(H4)]
 Deg. of freedom     7
 Full point group                 C2V     NOp   4
 RotChk:  IX=0 Diff= 7.17D-16
 Largest Abelian subgroup         C2V     NOp   4
 Largest concise Abelian subgroup C2V     NOp   4
                         Standard orientation:                         
 ---------------------------------------------------------------------
 Center     Atomic      Atomic             Coordinates (Angstroms)
 Number     Number       Type             X           Y           Z
 ---------------------------------------------------------------------
      1          8           0       -0.000000    0.000000    0.581100
      2          6           0       -0.000000    1.166196   -0.187988
      3          6           0       -0.000000   -1.166196   -0.187988
      4          1           0       -0.894273    1.241784   -0.844611
      5          1           0        0.894273    1.241784   -0.844611
      6          1           0       -0.000000    2.032857    0.492749
      7          1           0       -0.894273   -1.241784   -0.844611
      8          1           0        0.894273   -1.241784   -0.844611
      9          1           0       -0.000000   -2.032857    0.492749
 ---------------------------------------------------------------------
 Rotational constants (GHZ):          39.7426960          10.0253089           8.9165533
 Leave Link  202 at Wed Jun 24 00:00:44 2026, MaxMem=  1879048192 cpu:               0.0 elap:               0.0
 (Enter /CH/g16/l301.exe)
 Standard basis: def2SVP (5D, 7F)
 Ernie: Thresh=  0.10000D-02 Tol=  0.10000D-05 Strict=F.
 There are    28 symmetry adapted cartesian basis functions of A1  symmetry.
 There are    11 symmetry adapted cartesian basis functions of A2  symmetry.
 There are    13 symmetry adapted cartesian basis functions of B1  symmetry.
 There are    23 symmetry adapted cartesian basis functions of B2  symmetry.
 There are    26 symmetry adapted basis functions of A1  symmetry.
 There are    11 symmetry adapted basis functions of A2  symmetry.
 There are    13 symmetry adapted basis functions of B1  symmetry.
 There are    22 symmetry adapted basis functions of B2  symmetry.
    72 basis functions,   117 primitive gaussians,    75 cartesian basis functions
    13 alpha electrons       13 beta electrons
       nuclear repulsion energy        83.9599514819 Hartrees.
 IExCor=  402 DFT=T Ex+Corr=B3LYP ExCW=0 ScaHFX=  0.200000
 ScaDFX=  0.800000  0.720000  1.000000  0.810000 ScalE2=  1.000000  1.000000
 IRadAn=      5 IRanWt=     -1 IRanGd=            0 ICorTp=0 IEmpDi=141
 NAtoms=    9 NActive=    9 NUniq=    4 SFac= 4.00D+00 NAtFMM=   60 NAOKFM=F Big=F
 Integral buffers will be    131072 words long.
 Raffenetti 2 integral format.
 Two-electron integral symmetry is turned on.
 R6Disp:  Grimme-D3(BJ) Dispersion energy=       -0.0067554414 Hartrees.
 Nuclear repulsion after empirical dispersion term =       83.9531960405 Hartrees.
 ------------------------------------------------------------------------------
 Polarizable Continuum Model (PCM)
 =================================
 Model                : PCM.
 Atomic radii         : SMD-Coulomb.
 Polarization charges : Total charges.
 Charge compensation  : None.
 Solution method      : On-the-fly selection.
 Cavity type          : VdW (van der Waals Surface) (Alpha=1.000).
 Cavity algorithm     : GePol (No added spheres)
                        Default sphere list used, NSphG=    9.
                        Lebedev-Laikov grids with approx.  5.0 points / Ang**2.
                        Smoothing algorithm: York/Karplus (Gamma=1.0000).
                        Polarization charges: spherical gaussians, with
                                              point-specific exponents (IZeta= 3).
                        Self-potential: point-specific (ISelfS= 7).
                        Self-field    : sphere-specific E.n sum rule (ISelfD= 2).
 1st derivatives      : Analytical E(r).r(x)/FMM algorithm (CHGder, D1EAlg=3).
                        Cavity 1st derivative terms included.
 Solvent              : TetraHydroFuran, Eps=   7.425700 Eps(inf)=   1.974025
 ------------------------------------------------------------------------------
 Spheres list:
 ISph  on   Nord     Re0    Alpha      Xe            Ye            Ze
    1   O      1    2.2940  1.000     -0.000000     -0.000000      0.581100
    2   C      2    1.8500  1.000     -0.000000      1.166196     -0.187988
    3   C      3    1.8500  1.000     -0.000000     -1.166196     -0.187988
    4   H      4    1.2000  1.000     -0.894273      1.241784     -0.844611
    5   H      5    1.2000  1.000      0.894273      1.241784     -0.844611
    6   H      6    1.2000  1.000     -0.000000      2.032857      0.492749
    7   H      7    1.2000  1.000     -0.894273     -1.241784     -0.844611
    8   H      8    1.2000  1.000      0.894273     -1.241784     -0.844611
    9   H      9    1.2000  1.000     -0.000000     -2.032857      0.492749
 ------------------------------------------------------------------------------
 GePol: Number of generator spheres                  =       9
 GePol: Total number of spheres                      =       9
 GePol: Number of exposed spheres                    =       9 (100.00%)
 GePol: Number of points                             =     762
 GePol: Average weight of points                     =       0.12
 GePol: Minimum weight of points                     =   0.29D-07
 GePol: Maximum weight of points                     =    0.17992
 GePol: Number of points with low weight             =      40
 GePol: Fraction of low-weight points (<1% of avg)   =       5.25%
 GePol: Cavity surface area                          =     92.084 Ang**2
 GePol: Cavity volume                                =     73.895 Ang**3
 ------------------------------------------------------------------------------
 Atomic radii for non-electrostatic terms: SMD-CDS.
 ------------------------------------------------------------------------------
 PCM non-electrostatic energy =         0.0006763466 Hartrees.
 Nuclear repulsion after PCM non-electrostatic terms =       83.9538723871 Hartrees.
 Leave Link  301 at Wed Jun 24 00:00:44 2026, MaxMem=  1879048192 cpu:               0.1 elap:               0.0
 (Enter /CH/g16/l302.exe)
 NPDir=0 NMtPBC=     1 NCelOv=     1 NCel=       1 NClECP=     1 NCelD=      1
         NCelK=      1 NCelE2=     1 NClLst=     1 CellRange=     0.0.
 One-electron integrals computed using PRISM.
 One-electron integral symmetry used in STVInt
   4 Symmetry operations used in ECPInt.
 ECPInt:  NShTT=     666 NPrTT=    2268 LenC2=     667 LenP2D=    2069.
 LDataN:  DoStor=T MaxTD1= 4 Len=   56
 NBasis=    72 RedAO= T EigKep=  9.26D-03  NBF=    26    11    13    22
 NBsUse=    72 1.00D-06 EigRej= -1.00D+00 NBFU=    26    11    13    22
 Precomputing XC quadrature grid using
 IXCGrd= 4 IRadAn=           5 IRanWt=          -1 IRanGd=           0 AccXCQ= 0.00D+00.
 Generated NRdTot=       0 NPtTot=           0 NUsed=           0 NTot=          32
 NSgBfM=    75    75    75    75    75 MxSgAt=     9 MxSgA2=     9.
 Leave Link  302 at Wed Jun 24 00:00:44 2026, MaxMem=  1879048192 cpu:               0.3 elap:               0.1
 (Enter /CH/g16/l303.exe)
 DipDrv:  MaxL=1.
 Leave Link  303 at Wed Jun 24 00:00:44 2026, MaxMem=  1879048192 cpu:               0.0 elap:               0.0
 (Enter /CH/g16/l401.exe)
 Initial guess from the checkpoint file:  "Me2O.chk"
 B after Tr=    -0.000000   -0.000000   -0.000000
         Rot=    1.000000   -0.000000   -0.000000    0.000000 Ang=   0.00 deg.
 Guess basis will be translated and rotated to current coordinates.
 JPrj=2 DoOrth=T DoCkMO=T.
 Initial guess orbital symmetries:
       Occupied  (A1) (A1) (B2) (A1) (B2) (A1) (B2) (A1) (B1) (A2)
                 (B2) (A1) (B1)
       Virtual   (A1) (B2) (A1) (B1) (A1) (B2) (A2) (B2) (A1) (A2)
                 (B2) (B1) (A1) (B2) (B1) (A1) (B2) (A1) (B2) (A2)
                 (A1) (B2) (A1) (B1) (B2) (A2) (A1) (B1) (B2) (B1)
                 (A1) (A2) (A2) (A1) (B1) (B2) (A1) (A2) (B2) (A1)
                 (B1) (B2) (B2) (A1) (B1) (A1) (A2) (B2) (A1) (B2)
                 (A2) (A1) (B1) (B2) (B1) (A1) (A2) (A1) (B2)
 The electronic state of the initial guess is 1-A1.
 Generating alternative initial guess.
 ExpMin= 1.22D-01 ExpMax= 2.27D+03 ExpMxC= 3.41D+02 IAcc=3 IRadAn=         5 AccDes= 0.00D+00
 Harris functional with IExCor=  402 and IRadAn=       5 diagonalized for initial guess.
 HarFok:  IExCor=  402 AccDes= 0.00D+00 IRadAn=         5 IDoV= 1 UseB2=F ITyADJ=14
 ICtDFT=  3500011 ScaDFX=  1.000000  1.000000  1.000000  1.000000
 FoFCou: FMM=F IPFlag=           0 FMFlag=      100000 FMFlg1=           0
         NFxFlg=           0 DoJE=T BraDBF=F KetDBF=T FulRan=T
         wScrn=  0.000000 ICntrl=       500 IOpCl=  0 I1Cent=   200000004 NGrid=           0
         NMat0=    1 NMatS0=      1 NMatT0=    0 NMatD0=    1 NMtDS0=    0 NMtDT0=    0
 Petite list used in FoFCou.
 Harris En= -154.926907242367    
 Leave Link  401 at Wed Jun 24 00:00:44 2026, MaxMem=  1879048192 cpu:               0.5 elap:               0.1
 (Enter /CH/g16/l502.exe)
 Keep R1 ints in memory in symmetry-blocked form, NReq=10644973.
 FoFCou: FMM=F IPFlag=           0 FMFlag=           0 FMFlg1=           0
         NFxFlg=           0 DoJE=F BraDBF=F KetDBF=F FulRan=T
         wScrn=  0.000000 ICntrl=       600 IOpCl=  0 I1Cent=           0 NGrid=           0
         NMat0=    1 NMatS0=   2628 NMatT0=    0 NMatD0=    1 NMtDS0=    0 NMtDT0=    0
 Petite list used in FoFCou.
 Closed shell SCF:
 Using DIIS extrapolation, IDIIS=  1040.
 NGot=  1879048192 LenX=  1878149604 LenY=  1878143538
 Requested convergence on RMS density matrix=1.00D-08 within 128 cycles.
 Requested convergence on MAX density matrix=1.00D-06.
 Requested convergence on             energy=1.00D-06.
 No special actions if energy rises.

 Cycle   1  Pass 1  IDiag  1:
 Inv3:  Mode=1 IEnd=     1741932.
 Iteration    1 A*A^-1 deviation from unit magnitude is 2.89D-15 for     59.
 Iteration    1 A*A^-1 deviation from orthogonality  is 1.67D-15 for    386    214.
 Iteration    1 A^-1*A deviation from unit magnitude is 2.44D-15 for     59.
 Iteration    1 A^-1*A deviation from orthogonality  is 1.22D-15 for    600     67.
 E= -154.917716912495    
 DIIS: error= 2.16D-03 at cycle   1 NSaved=   1.
 NSaved= 1 IEnMin= 1 EnMin= -154.917716912495     IErMin= 1 ErrMin= 2.16D-03
 ErrMax= 2.16D-03  0.00D+00 EMaxC= 1.00D-01 BMatC= 3.19D-04 BMatP= 3.19D-04
 IDIUse=3 WtCom= 9.78D-01 WtEn= 2.16D-02
 Coeff-Com:  0.100D+01
 Coeff-En:   0.100D+01
 Coeff:      0.100D+01
 Gap=     0.320 Goal=   None    Shift=    0.000
 GapD=    0.320 DampG=1.000 DampE=1.000 DampFc=1.0000 IDamp=-1.
 RMSDP=3.42D-04 MaxDP=3.71D-03              OVMax= 1.03D-02

 Cycle   2  Pass 1  IDiag  1:
 E= -154.918242853377     Delta-E=       -0.000525940882 Rises=F Damp=F
 DIIS: error= 3.80D-04 at cycle   2 NSaved=   2.
 NSaved= 2 IEnMin= 2 EnMin= -154.918242853377     IErMin= 2 ErrMin= 3.80D-04
 ErrMax= 3.80D-04  0.00D+00 EMaxC= 1.00D-01 BMatC= 1.06D-05 BMatP= 3.19D-04
 IDIUse=3 WtCom= 9.96D-01 WtEn= 3.80D-03
 Coeff-Com: -0.172D-01 0.102D+01
 Coeff-En:   0.000D+00 0.100D+01
 Coeff:     -0.171D-01 0.102D+01
 Gap=     0.320 Goal=   None    Shift=    0.000
 RMSDP=8.10D-05 MaxDP=1.61D-03 DE=-5.26D-04 OVMax= 1.71D-03

 Cycle   3  Pass 1  IDiag  1:
 E= -154.918239449474     Delta-E=        0.000003403904 Rises=F Damp=F
 DIIS: error= 4.43D-04 at cycle   3 NSaved=   3.
 NSaved= 3 IEnMin= 2 EnMin= -154.918242853377     IErMin= 2 ErrMin= 3.80D-04
 ErrMax= 4.43D-04  0.00D+00 EMaxC= 1.00D-01 BMatC= 1.94D-05 BMatP= 1.06D-05
 IDIUse=3 WtCom= 3.22D-01 WtEn= 6.78D-01
 Coeff-Com: -0.452D-01 0.610D+00 0.436D+00
 Coeff-En:   0.000D+00 0.577D+00 0.423D+00
 Coeff:     -0.146D-01 0.588D+00 0.427D+00
 Gap=     0.319 Goal=   None    Shift=    0.000
 RMSDP=4.88D-05 MaxDP=1.01D-03 DE= 3.40D-06 OVMax= 1.02D-03

 Cycle   4  Pass 1  IDiag  1:
 E= -154.918253281867     Delta-E=       -0.000013832393 Rises=F Damp=F
 DIIS: error= 3.96D-05 at cycle   4 NSaved=   4.
 NSaved= 4 IEnMin= 4 EnMin= -154.918253281867     IErMin= 4 ErrMin= 3.96D-05
 ErrMax= 3.96D-05  0.00D+00 EMaxC= 1.00D-01 BMatC= 1.73D-07 BMatP= 1.06D-05
 IDIUse=1 WtCom= 1.00D+00 WtEn= 0.00D+00
 Coeff-Com: -0.834D-02 0.682D-01 0.119D+00 0.822D+00
 Coeff:     -0.834D-02 0.682D-01 0.119D+00 0.822D+00
 Gap=     0.319 Goal=   None    Shift=    0.000
 RMSDP=4.83D-06 MaxDP=7.73D-05 DE=-1.38D-05 OVMax= 1.05D-04

[...]
 GePol: Maximum number of non-zero 1st derivatives   =     344
 Leave Link  701 at Wed Jun 24 00:00:48 2026, MaxMem=  1879048192 cpu:               1.6 elap:               0.2
 (Enter /CH/g16/l702.exe)
 L702 exits ... SP integral derivatives will be done elsewhere.
 Leave Link  702 at Wed Jun 24 00:00:48 2026, MaxMem=  1879048192 cpu:               0.0 elap:               0.0
 (Enter /CH/g16/l703.exe)
 Integral derivatives from FoFJK, PRISM(SPDF).
 Compute integral first derivatives, UseDBF=F ICtDFT=           0.
 Calling FoFJK, ICntrl=      2127 FMM=F ISym2X=1 I1Cent= 0 IOpClX= 0 NMat=1 NMatS=1 NMatT=0.
 FoFJK:  IHMeth= 1 ICntrl=    2127 DoSepK=F KAlg= 0 I1Cent=           0 FoldK=F
 IRaf=         0 NMat=       1 IRICut=       1 DoRegI=T DoRafI=F ISym2E= 1 IDoP0=0 IntGTp=1.
 FoFCou: FMM=F IPFlag=           0 FMFlag=      100000 FMFlg1=         800
         NFxFlg=           0 DoJE=F BraDBF=F KetDBF=F FulRan=T
         wScrn=  0.000000 ICntrl=      2127 IOpCl=  0 I1Cent=           0 NGrid=           0
         NMat0=    1 NMatS0=      1 NMatT0=    0 NMatD0=    1 NMtDS0=    0 NMtDT0=    0
 Petite list used in FoFCou.
 Leave Link  703 at Wed Jun 24 00:00:48 2026, MaxMem=  1879048192 cpu:               0.7 elap:               0.1
 (Enter /CH/g16/l716.exe)
 Dipole        =-2.63644548D-17-1.33226763D-15-5.67248167D-01
 ***** Axes restored to original set *****
 -------------------------------------------------------------------
 Center     Atomic                   Forces (Hartrees/Bohr)
 Number     Number              X              Y              Z
 -------------------------------------------------------------------
      1        8           0.000000000    0.000000000   -0.000127306
      2        6           0.000000000   -0.000019621    0.000072983
      3        6          -0.000000000    0.000019621    0.000072983
      4        1           0.000003901    0.000014346    0.000015954
      5        1          -0.000003901    0.000014346    0.000015954
      6        1          -0.000000000   -0.000054846   -0.000041239
      7        1           0.000003901   -0.000014346    0.000015954
      8        1          -0.000003901   -0.000014346    0.000015954
      9        1          -0.000000000    0.000054846   -0.000041239
 -------------------------------------------------------------------
 Cartesian Forces:  Max     0.000127306 RMS     0.000037981
 Leave Link  716 at Wed Jun 24 00:00:48 2026, MaxMem=  1879048192 cpu:               0.0 elap:               0.0
 (Enter /CH/g16/l103.exe)

 GradGradGradGradGradGradGradGradGradGradGradGradGradGradGradGradGradGrad
 Berny optimization.
 Using GEDIIS/GDIIS optimizer.
 FormGI is forming the generalized inverse of G from B-inverse, IUseBI=4.
 Internal  Forces:  Max     0.000114054 RMS     0.000038295
 Search for a local minimum.
 Step number   5 out of a maximum of   37
 All quantities printed in internal units (Hartrees-Bohrs-Radians)
 RMS Force = .38295D-04 SwitMx=.10000D-02 MixMth= 2
 Mixed Optimization -- En-DIIS/RFO-DIIS
 Swapping is turned off.
 Update second derivatives using D2CorX and points    1    2    3    4    5
 DE= -4.61D-06 DEPred=-4.54D-06 R= 1.01D+00
 TightC=F SS=  1.41D+00  RLast= 6.51D-03 DXNew= 8.4853D-01 1.9533D-02
 Trust test= 1.01D+00 RLast= 6.51D-03 DXMaxT set to 5.05D-01
 ITU=  1  1  1  1  0
     Eigenvalues ---    0.02158   0.02158   0.10235   0.10516   0.10628
     Eigenvalues ---    0.10628   0.13322   0.16000   0.16000   0.16000
     Eigenvalues ---    0.16000   0.19377   0.23067   0.33290   0.34633
     Eigenvalues ---    0.34633   0.34633   0.35306   0.35528   0.41426
     Eigenvalues ---    0.52002
 En-DIIS/RFO-DIIS/Sim-DIIS IScMMF=       -3 using points:     5    4    3
 RFO step:  Lambda=-2.04110505D-07.
 NNeg= 0 NGDIIS= 3 SimSw=  2.50D-01 Rises=F DC= -4.61D-06 SmlDif=  1.00D-05
 NRisDI= 0 DoIntr=F SqrtH=F CThrHd= 10.0 CDAdj=  3.0
 RMS Error=  0.2046452526D-03 NUsed= 3 OKEnD=F EnDIS=F
 InvSVX:  RCond= 1.71D-06 Info=           0 Equed=N FErr=  1.72D-15 BErr=  3.88D-17
 DidBck=F Rises=F RFO-DIIS coefs:    1.03493   -0.02647   -0.00846
 Iteration  1 RMS(Cart)=  0.00032499 RMS(Int)=  0.00000013
 Iteration  2 RMS(Cart)=  0.00000009 RMS(Int)=  0.00000009
 ITry= 1 IFail=0 DXMaxC= 8.08D-04 DCOld= 1.00D+10 DXMaxT= 5.05D-01 DXLimC= 3.00D+00 Rises=F
 ClnCor:  largest displacement from symmetrization is 1.74D-13 for atom     5.
 Variable       Old X    -DE/DX   Delta X   Delta X   Delta X     New X
                                 (Linear)    (Quad)   (Total)
    R1        2.64915  -0.00000   0.00016  -0.00010   0.00006   2.64921
    R2        2.64915  -0.00000   0.00016  -0.00010   0.00006   2.64921
    R3        2.09767   0.00001  -0.00006   0.00007   0.00001   2.09768
    R4        2.09767   0.00001  -0.00006   0.00007   0.00001   2.09768
    R5        2.08061  -0.00002  -0.00003  -0.00001  -0.00004   2.08056
    R6        2.09767   0.00001  -0.00006   0.00007   0.00001   2.09768
    R7        2.09767   0.00001  -0.00006   0.00007   0.00001   2.09768
    R8        2.08061  -0.00002  -0.00003  -0.00001  -0.00004   2.08056
    A1        1.96976  -0.00004  -0.00002  -0.00011  -0.00013   1.96963
    A2        1.95739   0.00004  -0.00007   0.00024   0.00017   1.95755
    A3        1.95739   0.00004  -0.00007   0.00024   0.00017   1.95755
    A4        1.88834  -0.00011  -0.00007  -0.00056  -0.00063   1.88771
    A5        1.87690  -0.00001   0.00012  -0.00007   0.00005   1.87695
    A6        1.89092   0.00002   0.00005   0.00008   0.00013   1.89105
    A7        1.89092   0.00002   0.00005   0.00008   0.00013   1.89105
    A8        1.95739   0.00004  -0.00007   0.00024   0.00017   1.95755
    A9        1.95739   0.00004  -0.00007   0.00024   0.00017   1.95755
   A10        1.88834  -0.00011  -0.00007  -0.00056  -0.00063   1.88771
   A11        1.87690  -0.00001   0.00012  -0.00007   0.00005   1.87695
   A12        1.89092   0.00002   0.00005   0.00008   0.00013   1.89105
   A13        1.89092   0.00002   0.00005   0.00008   0.00013   1.89105
    D1        1.05706   0.00002   0.00003   0.00012   0.00015   1.05722
    D2       -1.05706  -0.00002  -0.00003  -0.00012  -0.00015  -1.05722
    D3        3.14159   0.00000   0.00000   0.00000   0.00000   3.14159
    D4       -1.05706  -0.00002  -0.00003  -0.00012  -0.00015  -1.05722
    D5        1.05706   0.00002   0.00003   0.00012   0.00015   1.05722
    D6        3.14159  -0.00000   0.00000  -0.00000   0.00000   3.14159
         Item               Value     Threshold  Converged?
 Maximum Force            0.000114     0.000450     YES
 RMS     Force            0.000038     0.000300     YES
 Maximum Displacement     0.000808     0.001800     YES
 RMS     Displacement     0.000325     0.001200     YES
 Predicted change in Energy=-1.020287D-07
 Optimization completed.
    -- Stationary point found.
                           ----------------------------
                           !   Optimized Parameters   !
                           ! (Angstroms and Degrees)  !
 --------------------------                            --------------------------
 ! Name  Definition              Value          Derivative Info.                !
 --------------------------------------------------------------------------------
 ! R1    R(1,2)                  1.4019         -DE/DX =    0.0                 !
 ! R2    R(1,3)                  1.4019         -DE/DX =    0.0                 !
 ! R3    R(2,4)                  1.11           -DE/DX =    0.0                 !
 ! R4    R(2,5)                  1.11           -DE/DX =    0.0                 !
 ! R5    R(2,6)                  1.101          -DE/DX =    0.0                 !
 ! R6    R(3,7)                  1.11           -DE/DX =    0.0                 !
 ! R7    R(3,8)                  1.11           -DE/DX =    0.0                 !
 ! R8    R(3,9)                  1.101          -DE/DX =    0.0                 !
 ! A1    A(2,1,3)              112.8589         -DE/DX =    0.0                 !
 ! A2    A(1,2,4)              112.1499         -DE/DX =    0.0                 !
 ! A3    A(1,2,5)              112.1499         -DE/DX =    0.0                 !
 ! A4    A(1,2,6)              108.194          -DE/DX =   -0.0001              !
 ! A5    A(4,2,5)              107.5385         -DE/DX =    0.0                 !
 ! A6    A(4,2,6)              108.3418         -DE/DX =    0.0                 !
 ! A7    A(5,2,6)              108.3418         -DE/DX =    0.0                 !
 ! A8    A(1,3,7)              112.1499         -DE/DX =    0.0                 !
 ! A9    A(1,3,8)              112.1499         -DE/DX =    0.0                 !
 ! A10   A(1,3,9)              108.194          -DE/DX =   -0.0001              !
 ! A11   A(7,3,8)              107.5385         -DE/DX =    0.0                 !
 ! A12   A(7,3,9)              108.3418         -DE/DX =    0.0                 !
 ! A13   A(8,3,9)              108.3418         -DE/DX =    0.0                 !
 ! D1    D(3,1,2,4)             60.5653         -DE/DX =    0.0                 !
 ! D2    D(3,1,2,5)            -60.5653         -DE/DX =    0.0                 !
 ! D3    D(3,1,2,6)            180.0            -DE/DX =    0.0                 !
 ! D4    D(2,1,3,7)            -60.5653         -DE/DX =    0.0                 !
 ! D5    D(2,1,3,8)             60.5653         -DE/DX =    0.0                 !
 ! D6    D(2,1,3,9)            180.0            -DE/DX =    0.0                 !
 --------------------------------------------------------------------------------
 Lowest energy point so far.  Saving SCF results.
 Largest change from initial coordinates is atom    1       0.052 Angstoms.
 GradGradGradGradGradGradGradGradGradGradGradGradGradGradGradGradGradGrad

 Leave Link  103 at Wed Jun 24 00:00:48 2026, MaxMem=  1879048192 cpu:               0.0 elap:               0.0
 (Enter /CH/g16/l202.exe)
                          Input orientation:                          
 ---------------------------------------------------------------------
 Center     Atomic      Atomic             Coordinates (Angstroms)
 Number     Number       Type             X           Y           Z
 ---------------------------------------------------------------------
      1          8           0        0.000000   -0.000000   -0.125360
      2          6           0       -0.000000    1.168044    0.649821
      3          6           0        0.000000   -1.168044    0.649821
      4          1           0        0.895404    1.237372    1.302223
      5          1           0       -0.895404    1.237372    1.302223
      6          1           0       -0.000000    2.032858   -0.031587
      7          1           0        0.895404   -1.237372    1.302223
      8          1           0       -0.895404   -1.237372    1.302223
      9          1           0        0.000000   -2.032858   -0.031587
 ---------------------------------------------------------------------
                    Distance matrix (angstroms):
                    1          2          3          4          5
     1  O    0.000000
     2  C    1.401867   0.000000
     3  C    1.401867   2.336087   0.000000
     4  H    2.090653   1.110037   2.648282   0.000000
     5  H    2.090653   1.110037   2.648282   1.790808   0.000000
     6  H    2.035020   1.101010   3.272627   1.792651   1.792651
     7  H    2.090653   2.648282   1.110037   2.474743   3.054725
     8  H    2.090653   2.648282   1.110037   3.054725   2.474743
     9  H    2.035020   3.272627   1.101010   3.643515   3.643515
                    6          7          8          9
     6  H    0.000000
     7  H    3.643515   0.000000
     8  H    3.643515   1.790808   0.000000
     9  H    4.065717   1.792651   1.792651   0.000000
 Stoichiometry    C2H6O
 Framework group  C2V[C2(O),SGV(C2H2),X(H4)]
 Deg. of freedom     7
 Full point group                 C2V     NOp   4
 RotChk:  IX=0 Diff= 7.88D-16
 Largest Abelian subgroup         C2V     NOp   4
 Largest concise Abelian subgroup C2V     NOp   4
                         Standard orientation:                         
 ---------------------------------------------------------------------
 Center     Atomic      Atomic             Coordinates (Angstroms)
 Number     Number       Type             X           Y           Z
 ---------------------------------------------------------------------
      1          8           0        0.000000    0.000000    0.584618
      2          6           0        0.000000    1.168044   -0.190564
      3          6           0       -0.000000   -1.168044   -0.190564
      4          1           0       -0.895404    1.237372   -0.842966
      5          1           0        0.895404    1.237372   -0.842966
      6          1           0        0.000000    2.032858    0.490844
      7          1           0       -0.895404   -1.237372   -0.842966
      8          1           0        0.895404   -1.237372   -0.842966
      9          1           0       -0.000000   -2.032858    0.490844
 ---------------------------------------------------------------------
 Rotational constants (GHZ):          39.4866355          10.0118903           8.8955695
 Leave Link  202 at Wed Jun 24 00:00:48 2026, MaxMem=  1879048192 cpu:               0.0 elap:               0.0
 (Enter /CH/g16/l601.exe)
 Copying SCF densities to generalized density rwf, IOpCl= 0 IROHF=0.

 **********************************************************************

            Population analysis using the SCF Density.

 **********************************************************************

 Orbital symmetries:
       Occupied  (A1) (A1) (B2) (A1) (B2) (A1) (B2) (A1) (B1) (A2)
                 (B2) (A1) (B1)
       Virtual   (A1) (B2) (A1) (B1) (A1) (B2) (A2) (B2) (A1) (A2)
                 (B2) (B1) (A1) (B2) (A1) (B1) (B2) (A1) (B2) (A2)
                 (A1) (B2) (A1) (B1) (B2) (A2) (A1) (B1) (B2) (B1)
                 (A2) (A1) (A2) (A1) (B1) (B2) (A1) (B2) (A2) (A1)
                 (B1) (B2) (B2) (A1) (B1) (A1) (A2) (B2) (A1) (B2)
                 (A1) (A2) (B1) (B2) (B1) (A2) (A1) (A1) (B2)
 The electronic state is 1-A1.
 Alpha  occ. eigenvalues --  -19.12562 -10.22095 -10.22093  -1.01797  -0.70662
 Alpha  occ. eigenvalues --   -0.61857  -0.47309  -0.46286  -0.46144  -0.38382
 Alpha  occ. eigenvalues --   -0.36821  -0.31081  -0.25076
 Alpha virt. eigenvalues --    0.06811   0.11134   0.12608   0.13517   0.13814
 Alpha virt. eigenvalues --    0.15736   0.16769   0.24591   0.42533   0.46033
 Alpha virt. eigenvalues --    0.46118   0.47893   0.50355   0.62630   0.63615
 Alpha virt. eigenvalues --    0.63783   0.65659   0.66561   0.68098   0.68448
 Alpha virt. eigenvalues --    0.69801   0.87972   0.94942   0.99727   1.19148
 Alpha virt. eigenvalues --    1.19648   1.26337   1.33223   1.47856   1.52767
 Alpha virt. eigenvalues --    1.53323   1.54670   1.69646   1.73182   1.73841
 Alpha virt. eigenvalues --    1.77075   1.81038   1.82347   1.84901   1.85186
 Alpha virt. eigenvalues --    1.91409   2.02054   2.19161   2.22431   2.29311
 Alpha virt. eigenvalues --    2.34163   2.34493   2.42757   2.63417   2.64619
 Alpha virt. eigenvalues --    2.77713   2.77890   2.84431   2.86326   2.95393
 Alpha virt. eigenvalues --    3.13935   3.14092   3.31379   3.49841
          Condensed to atoms (all electrons):
               1          2          3          4          5          6
     1  O    7.931008   0.333586   0.333586  -0.035348  -0.035348  -0.026666
     2  C    0.333586   4.381394  -0.043007   0.384048   0.384048   0.393092
     3  C    0.333586  -0.043007   4.381394  -0.005335  -0.005335   0.007288
     4  H   -0.035348   0.384048  -0.005335   0.719291  -0.047268  -0.029315
     5  H   -0.035348   0.384048  -0.005335  -0.047268   0.719291  -0.029315
     6  H   -0.026666   0.393092   0.007288  -0.029315  -0.029315   0.659166
     7  H   -0.035348  -0.005335   0.384048   0.017161  -0.005597  -0.000108
     8  H   -0.035348  -0.005335   0.384048  -0.005597   0.017161  -0.000108
     9  H   -0.026666   0.007288   0.393092  -0.000108  -0.000108  -0.000600
               7          8          9
     1  O   -0.035348  -0.035348  -0.026666
     2  C   -0.005335  -0.005335   0.007288
     3  C    0.384048   0.384048   0.393092
     4  H    0.017161  -0.005597  -0.000108
     5  H   -0.005597   0.017161  -0.000108
     6  H   -0.000108  -0.000108  -0.000600
     7  H    0.719291  -0.047268  -0.029315
     8  H   -0.047268   0.719291  -0.029315
     9  H   -0.029315  -0.029315   0.659166
 Mulliken charges:
               1
     1  O   -0.403454
     2  C    0.170221
     3  C    0.170221
     4  H    0.002471
     5  H    0.002471
     6  H    0.026564
     7  H    0.002471
     8  H    0.002471
     9  H    0.026564
 Sum of Mulliken charges =   0.00000
 Mulliken charges with hydrogens summed into heavy atoms:
               1
     1  O   -0.403454
     2  C    0.201727
     3  C    0.201727
 Electronic spatial extent (au):  <R**2>=            187.8282
 Charge=              0.0000 electrons
 Dipole moment (field-independent basis, Debye):
    X=              0.0000    Y=              0.0000    Z=             -1.4418  Tot=              1.4418
 Quadrupole moment (field-independent basis, Debye-Ang):
   XX=            -20.1660   YY=            -17.0854   ZZ=            -21.0342
   XY=              0.0000   XZ=              0.0000   YZ=              0.0000
 Traceless Quadrupole moment (field-independent basis, Debye-Ang):
   XX=             -0.7375   YY=              2.3431   ZZ=             -1.6057
   XY=              0.0000   XZ=              0.0000   YZ=              0.0000
 Octapole moment (field-independent basis, Debye-Ang**2):
  XXX=              0.0000  YYY=              0.0000  ZZZ=              1.6978  XYY=              0.0000
  XXY=             -0.0000  XXZ=              0.1115  XZZ=             -0.0000  YZZ=             -0.0000
  YYZ=              1.9490  XYZ=             -0.0000
 Hexadecapole moment (field-independent basis, Debye-Ang**3):
 XXXX=            -34.4907 YYYY=           -159.3745 ZZZZ=            -49.2896 XXXY=             -0.0000
 XXXZ=             -0.0000 YYYX=             -0.0000 YYYZ=              0.0000 ZZZX=              0.0000
 ZZZY=              0.0000 XXYY=            -34.2521 XXZZ=            -13.3354 YYZZ=            -34.0916
 XXYZ=              0.0000 YYXZ=              0.0000 ZZXY=             -0.0000
 N-N= 8.384901761940D+01 E-N=-5.288959921152D+02  KE= 1.533259909682D+02
 Symmetry A1   KE= 1.042122431844D+02
 Symmetry A2   KE= 2.071146791608D+00
 Symmetry B1   KE= 6.541420441687D+00
 Symmetry B2   KE= 4.050118055047D+01
 No NMR shielding tensors so no spin-rotation constants.
 Leave Link  601 at Wed Jun 24 00:00:48 2026, MaxMem=  1879048192 cpu:               0.3 elap:               0.1
 (Enter /CH/g16/l9999.exe)
 Unable to Open any file for archive entry.
 1\1\GINC-NODE0-CHCLUSTER\FOpt\RB3LYP\def2SVP\C2H6O1\LS\24-Jun-2026\0\\
 #p B3LYP/def2SVP EmpiricalDispersion=GD3BJ opt SCRF=(SMD,Solvent=Tetra
 hydrofuran) int=ultrafine\\Me2O\\0,1\O,0.,0.,-0.1253602374\C,0.,1.1680
 435002,0.6498211621\C,0.,-1.1680435002,0.6498211621\H,0.8954040422,1.2
 37371555,1.3022230246\H,-0.8954040422,1.237371555,1.3022230246\H,0.,2.
 0328584395,-0.0315870927\H,0.8954040422,-1.237371555,1.3022230246\H,-0
 .8954040422,-1.237371555,1.3022230246\H,0.,-2.0328584395,-0.0315870927
 \\Version=ES64L-G16RevC.02\State=1-A1\HF=-154.9183023\RMSD=4.741e-09\R
 MSF=3.798e-05\Dipole=0.,0.,0.5672482\Quadrupole=-0.5482925,1.7420726,-
 1.19378,0.,0.,0.\PG=C02V [C2(O1),SGV(C2H2),X(H4)]\\@
 The archive entry for this job was punched.


 Everything starts as somebody's daydream.
                           -- Larry Niven
 Job cpu time:       0 days  0 hours  0 minutes 45.3 seconds.
 Elapsed time:       0 days  0 hours  0 minutes  7.5 seconds.
 File lengths (MBytes):  RWF=     28 Int=      0 D2E=      0 Chk=      3 Scr=      1
 Normal termination of Gaussian 16 at Wed Jun 24 00:00:48 2026.
