 Entering Gaussian System, Link 0=/CH/g16/g16
 Initial command:
 /CH/g16/l1.exe "/tmp/g16_2862274/Gau-2862278.inp" -scrdir="/tmp/g16_2862274/"
 Default is to use a total of  96 processors:
                               96 via shared-memory
                                1 via Linda
 Entering Link 1 = /CH/g16/l1.exe PID=   2862279.
  
 Copyright (c) 1988-2021, Gaussian, Inc.  All Rights Reserved.
  
 This is part of the Gaussian(R) 16 program.  It is based on
 the Gaussian(R) 09 system (copyright 2009, Gaussian, Inc.),
 the Gaussian(R) 03 system (copyright 2003, Gaussian, Inc.),
 the Gaussian(R) 98 system (copyright 1998, Gaussian, Inc.),
 the Gaussian(R) 94 system (copyright 1995, Gaussian, Inc.),
 the Gaussian 92(TM) system (copyright 1992, Gaussian, Inc.),
 the Gaussian 90(TM) system (copyright 1990, Gaussian, Inc.),
 the Gaussian 88(TM) system (copyright 1988, Gaussian, Inc.),
 the Gaussian 86(TM) system (copyright 1986, Carnegie Mellon
 University), and the Gaussian 82(TM) system (copyright 1983,
 Carnegie Mellon University). Gaussian is a federally registered
 trademark of Gaussian, Inc.
  
 This software contains proprietary and confidential information,
 including trade secrets, belonging to Gaussian, Inc.
  
 This software is provided under written license and may be
 used, copied, transmitted, or stored only in accord with that
 written license.
  
 The following legend is applicable only to US Government
 contracts under FAR:
  
                    RESTRICTED RIGHTS LEGEND
  
 Use, reproduction and disclosure by the US Government is
 subject to restrictions as set forth in subparagraphs (a)
 and (c) of the Commercial Computer Software - Restricted
 Rights clause in FAR 52.227-19.
  
 Gaussian, Inc.
 340 Quinnipiac St., Bldg. 40, Wallingford CT 06492
  
  
 ---------------------------------------------------------------
 Warning -- This program may not be used in any manner that
 competes with the business of Gaussian, Inc. or will provide
 assistance to any competitor of Gaussian, Inc.  The licensee
 of this program is prohibited from giving any competitor of
 Gaussian, Inc. access to this program.  By using this program,
 the user acknowledges that Gaussian, Inc. is engaged in the
 business of creating and licensing software in the field of
 computational chemistry and represents and warrants to the
 licensee that it is not a competitor of Gaussian, Inc. and that
 it will not use this program in any manner prohibited above.
 ---------------------------------------------------------------
  

 Cite this work as:
 Gaussian 16, Revision C.02,
 M. J. Frisch, G. W. Trucks, H. B. Schlegel, G. E. Scuseria, 
 M. A. Robb, J. R. Cheeseman, G. Scalmani, V. Barone, 
 G. A. Petersson, H. Nakatsuji, X. Li, M. Caricato, A. V. Marenich, 
 J. Bloino, B. G. Janesko, R. Gomperts, B. Mennucci, H. P. Hratchian, 
 J. V. Ortiz, A. F. Izmaylov, J. L. Sonnenberg, D. Williams-Young, 
 F. Ding, F. Lipparini, F. Egidi, J. Goings, B. Peng, A. Petrone, 
 T. Henderson, D. Ranasinghe, V. G. Zakrzewski, J. Gao, N. Rega, 
 G. Zheng, W. Liang, M. Hada, M. Ehara, K. Toyota, R. Fukuda, 
 J. Hasegawa, M. Ishida, T. Nakajima, Y. Honda, O. Kitao, H. Nakai, 
 T. Vreven, K. Throssell, J. A. Montgomery, Jr., J. E. Peralta, 
 F. Ogliaro, M. J. Bearpark, J. J. Heyd, E. N. Brothers, K. N. Kudin, 
 V. N. Staroverov, T. A. Keith, R. Kobayashi, J. Normand, 
 K. Raghavachari, A. P. Rendell, J. C. Burant, S. S. Iyengar, 
 J. Tomasi, M. Cossi, J. M. Millam, M. Klene, C. Adamo, R. Cammi, 
 J. W. Ochterski, R. L. Martin, K. Morokuma, O. Farkas, 
 J. B. Foresman, and D. J. Fox, Gaussian, Inc., Wallingford CT, 2019.
 
 ******************************************
 Gaussian 16:  ES64L-G16RevC.02  7-Dec-2021
                23-Jun-2026 
 ******************************************
 %chk=Mg2p.chk
 %nprocshared=8
 Will use up to    8 processors via shared memory.
 %mem=14GB
 ----------------------------------------------------------------------
 #p B3LYP/def2SVP EmpiricalDispersion=GD3BJ SCRF=(SMD,Solvent=Tetrahydr
 ofuran) int=ultrafine
 ----------------------------------------------------------------------
 1/38=1,172=1/1;
 2/12=2,17=6,18=5,40=1/2;
 3/5=43,7=101,11=2,25=1,30=1,70=32201,72=20,74=-5,75=-5,124=41/1,2,3;
 4//1;
 5/5=2,38=5,53=20/2;
 6/7=2,8=2,9=2,10=2,28=1/1;
 99/5=1,9=1/99;
 Leave Link    1 at Tue Jun 23 23:55:27 2026, MaxMem=  1879048192 cpu:               1.2 elap:               0.0
 (Enter /CH/g16/l101.exe)
 ----
 Mg2p
 ----
 Symbolic Z-matrix:
 Charge =  2 Multiplicity = 1
 Wanted a floating point number as input.
 Found an integer as input.
 Mg 0 0 0                                                                        
       ?
 Error termination via Lnk1e in /CH/g16/l101.exe at Tue Jun 23 23:55:27 2026.
 Job cpu time:       0 days  0 hours  0 minutes  1.3 seconds.
 Elapsed time:       0 days  0 hours  0 minutes  0.1 seconds.
 File lengths (MBytes):  RWF=      6 Int=      0 D2E=      0 Chk=      1 Scr=      1
Error: segmentation violation
   rax 0x0000000000000000, rbx 0x0000000010df02d8, rcx 0x00001545354f752b
   rdx 0x0000000000000000, rsp 0x00007fff81a6fc98, rbp 0x0000000002f1a390
   rsi 0x000000000000000b, rdi 0x00000000002bacc7, r8  0x0000000380001000
   r9  0x0000000069fe8012, r10 0x00001545361e5d70, r11 0x0000000000000202
   r12 0x00007fff81a6fd50, r13 0x00007fff81a6fdc8, r14 0x00007fff81a6fdc0
   r15 0x0000000010df02f8
  /lib64/libpthread.so.0(+0x12990) [0x154535c3f990]
  /lib64/libc.so.6(kill+0xb) [0x1545354f752b]
