 Entering Gaussian System, Link 0=/CH/g16/g16
 Initial command:
 /CH/g16/l1.exe "/tmp/g16_Mg_disiloxane_2866645/Gau-2866662.inp" -scrdir="/tmp/g16_Mg_disiloxane_2866645/"
 Default is to use a total of  96 processors:
                               96 via shared-memory
                                1 via Linda
 Entering Link 1 = /CH/g16/l1.exe PID=   2866668.
  
 Copyright (c) 1988-2021, Gaussian, Inc.  All Rights Reserved.
  
 This is part of the Gaussian(R) 16 program.  It is based on
 the Gaussian(R) 09 system (copyright 2009, Gaussian, Inc.),
 the Gaussian(R) 03 system (copyright 2003, Gaussian, Inc.),
 the Gaussian(R) 98 system (copyright 1998, Gaussian, Inc.),
 the Gaussian(R) 94 system (copyright 1995, Gaussian, Inc.),
 the Gaussian 92(TM) system (copyright 1992, Gaussian, Inc.),
 the Gaussian 90(TM) system (copyright 1990, Gaussian, Inc.),
 the Gaussian 88(TM) system (copyright 1988, Gaussian, Inc.),
 the Gaussian 86(TM) system (copyright 1986, Carnegie Mellon
 University), and the Gaussian 82(TM) system (copyright 1983,
 Carnegie Mellon University). Gaussian is a federally registered
 trademark of Gaussian, Inc.
  
 This software contains proprietary and confidential information,
 including trade secrets, belonging to Gaussian, Inc.
  
 This software is provided under written license and may be
 used, copied, transmitted, or stored only in accord with that
 written license.
  
 The following legend is applicable only to US Government
 contracts under FAR:
  
                    RESTRICTED RIGHTS LEGEND
  
 Use, reproduction and disclosure by the US Government is
 subject to restrictions as set forth in subparagraphs (a)
 and (c) of the Commercial Computer Software - Restricted
 Rights clause in FAR 52.227-19.
  
 Gaussian, Inc.
 340 Quinnipiac St., Bldg. 40, Wallingford CT 06492
  
  
 ---------------------------------------------------------------
 Warning -- This program may not be used in any manner that
 competes with the business of Gaussian, Inc. or will provide
 assistance to any competitor of Gaussian, Inc.  The licensee
 of this program is prohibited from giving any competitor of
 Gaussian, Inc. access to this program.  By using this program,
 the user acknowledges that Gaussian, Inc. is engaged in the
 business of creating and licensing software in the field of
 computational chemistry and represents and warrants to the
 licensee that it is not a competitor of Gaussian, Inc. and that
 it will not use this program in any manner prohibited above.
 ---------------------------------------------------------------
  

 Cite this work as:
 Gaussian 16, Revision C.02,
 M. J. Frisch, G. W. Trucks, H. B. Schlegel, G. E. Scuseria, 
 M. A. Robb, J. R. Cheeseman, G. Scalmani, V. Barone, 
 G. A. Petersson, H. Nakatsuji, X. Li, M. Caricato, A. V. Marenich, 
 J. Bloino, B. G. Janesko, R. Gomperts, B. Mennucci, H. P. Hratchian, 
 J. V. Ortiz, A. F. Izmaylov, J. L. Sonnenberg, D. Williams-Young, 
 F. Ding, F. Lipparini, F. Egidi, J. Goings, B. Peng, A. Petrone, 
 T. Henderson, D. Ranasinghe, V. G. Zakrzewski, J. Gao, N. Rega, 
 G. Zheng, W. Liang, M. Hada, M. Ehara, K. Toyota, R. Fukuda, 
 J. Hasegawa, M. Ishida, T. Nakajima, Y. Honda, O. Kitao, H. Nakai, 
 T. Vreven, K. Throssell, J. A. Montgomery, Jr., J. E. Peralta, 
 F. Ogliaro, M. J. Bearpark, J. J. Heyd, E. N. Brothers, K. N. Kudin, 
 V. N. Staroverov, T. A. Keith, R. Kobayashi, J. Normand, 
 K. Raghavachari, A. P. Rendell, J. C. Burant, S. S. Iyengar, 
 J. Tomasi, M. Cossi, J. M. Millam, M. Klene, C. Adamo, R. Cammi, 
 J. W. Ochterski, R. L. Martin, K. Morokuma, O. Farkas, 
 J. B. Foresman, and D. J. Fox, Gaussian, Inc., Wallingford CT, 2019.
 
 ******************************************
 Gaussian 16:  ES64L-G16RevC.02  7-Dec-2021
                24-Jun-2026 
 ******************************************
 %chk=Mg_disiloxane.chk
 %nprocshared=8
 Will use up to    8 processors via shared memory.
 %mem=14GB
 ----------------------------------------------------------------------
 #p B3LYP/def2SVP EmpiricalDispersion=GD3BJ opt SCRF=(SMD,Solvent=Tetra
 hydrofuran) int=ultrafine
 ----------------------------------------------------------------------
 1/18=20,19=15,26=6,38=1/1,3;
 2/9=110,12=2,17=6,18=5,40=1/2;
 3/5=43,7=101,11=2,25=1,30=1,70=32201,71=1,72=20,74=-5,75=-5,124=41/1,2,3;
 4//1;
 5/5=2,38=5,53=20/2;
 6/7=2,8=2,9=2,10=2,28=1/1;
 7//1,2,3,16;
 1/18=20,19=15,26=6/3(2);
 2/9=110/2;
 99//99;
 2/9=110/2;
 3/5=43,7=101,11=2,25=1,30=1,70=32205,71=1,72=20,74=-5,75=-5,124=41/1,2,3;
 4/5=5,16=3,69=1/1;
 5/5=2,38=5,53=20/2;
 7//1,2,3,16;
 1/18=20,19=15,26=6/3(-5);
 2/9=110/2;
 6/7=2,8=2,9=2,10=2,19=2,28=1/1;
 99/9=1/99;
 Leave Link    1 at Wed Jun 24 00:00:40 2026, MaxMem=  1879048192 cpu:               3.5 elap:               0.1
 (Enter /CH/g16/l101.exe)
 -------------
 Mg_disiloxane
 -------------
 Symbolic Z-matrix:
 Charge =  2 Multiplicity = 1
 Mg                    0.        0.       -2.05 
 O                     0.        0.        0. 
 Si                    0.        1.48      0.8 
 Si                    0.       -1.48      0.8 
 H                     1.18      1.55      1.62 
 H                    -1.18      1.55      1.62 
 H                     0.        2.55     -0.18 
 H                     1.18     -1.55      1.62 
 H                    -1.18     -1.55      1.62 
 H                     0.       -2.55     -0.18 
 
 ITRead=  0  0  0  0  0  0  0  0  0  0
 MicOpt= -1 -1 -1 -1 -1 -1 -1 -1 -1 -1
 NAtoms=     10 NQM=       10 NQMF=       0 NMMI=      0 NMMIF=      0
                NMic=       0 NMicF=      0.
                    Isotopes and Nuclear Properties:
 (Nuclear quadrupole moments (NQMom) in fm**2, nuclear magnetic moments (NMagM)
  in nuclear magnetons)

  Atom         1           2           3           4           5           6           7           8           9          10
 IAtWgt=          24          16          28          28           1           1           1           1           1           1
 AtmWgt=  23.9850450  15.9949146  27.9769284  27.9769284   1.0078250   1.0078250   1.0078250   1.0078250   1.0078250   1.0078250
 NucSpn=           0           0           0           0           1           1           1           1           1           1
 AtZEff=  -0.0000000  -0.0000000  -0.0000000  -0.0000000  -0.0000000  -0.0000000  -0.0000000  -0.0000000  -0.0000000  -0.0000000
 NQMom=    0.0000000   0.0000000   0.0000000   0.0000000   0.0000000   0.0000000   0.0000000   0.0000000   0.0000000   0.0000000
 NMagM=    0.0000000   0.0000000   0.0000000   0.0000000   2.7928460   2.7928460   2.7928460   2.7928460   2.7928460   2.7928460
 AtZNuc=  12.0000000   8.0000000  14.0000000  14.0000000   1.0000000   1.0000000   1.0000000   1.0000000   1.0000000   1.0000000
 Leave Link  101 at Wed Jun 24 00:00:41 2026, MaxMem=  1879048192 cpu:               0.4 elap:               0.4
 (Enter /CH/g16/l103.exe)

 GradGradGradGradGradGradGradGradGradGradGradGradGradGradGradGradGradGrad
 Berny optimization.
 Initialization pass.
                           ----------------------------
                           !    Initial Parameters    !
                           ! (Angstroms and Degrees)  !
 --------------------------                            --------------------------
 ! Name  Definition              Value          Derivative Info.                !
 --------------------------------------------------------------------------------
 ! R1    R(1,2)                  2.05           estimate D2E/DX2                !
 ! R2    R(2,3)                  1.6824         estimate D2E/DX2                !
 ! R3    R(2,4)                  1.6824         estimate D2E/DX2                !
 ! R4    R(3,5)                  1.4386         estimate D2E/DX2                !
 ! R5    R(3,6)                  1.4386         estimate D2E/DX2                !
 ! R6    R(3,7)                  1.451          estimate D2E/DX2                !
 ! R7    R(4,8)                  1.4386         estimate D2E/DX2                !
 ! R8    R(4,9)                  1.4386         estimate D2E/DX2                !
 ! R9    R(4,10)                 1.451          estimate D2E/DX2                !
 ! A1    A(1,2,3)              118.393          estimate D2E/DX2                !
 ! A2    A(1,2,4)              118.393          estimate D2E/DX2                !
 ! A3    A(3,2,4)              123.214          estimate D2E/DX2                !
 ! A4    A(2,3,5)              108.2908         estimate D2E/DX2                !
 ! A5    A(2,3,6)              108.2908         estimate D2E/DX2                !
 ! A6    A(2,3,7)              109.1208         estimate D2E/DX2                !
 ! A7    A(5,3,6)              110.2129         estimate D2E/DX2                !
 ! A8    A(5,3,7)              110.4317         estimate D2E/DX2                !
 ! A9    A(6,3,7)              110.4317         estimate D2E/DX2                !
 ! A10   A(2,4,8)              108.2908         estimate D2E/DX2                !
 ! A11   A(2,4,9)              108.2908         estimate D2E/DX2                !
 ! A12   A(2,4,10)             109.1208         estimate D2E/DX2                !
 ! A13   A(8,4,9)              110.2129         estimate D2E/DX2                !
 ! A14   A(8,4,10)             110.4317         estimate D2E/DX2                !
 ! A15   A(9,4,10)             110.4317         estimate D2E/DX2                !
 ! D1    D(1,2,3,5)           -120.247          estimate D2E/DX2                !
 ! D2    D(1,2,3,6)            120.247          estimate D2E/DX2                !
 ! D3    D(1,2,3,7)              0.0            estimate D2E/DX2                !
 ! D4    D(4,2,3,5)             59.753          estimate D2E/DX2                !
 ! D5    D(4,2,3,6)            -59.753          estimate D2E/DX2                !
 ! D6    D(4,2,3,7)            180.0            estimate D2E/DX2                !
 ! D7    D(1,2,4,8)            120.247          estimate D2E/DX2                !
 ! D8    D(1,2,4,9)           -120.247          estimate D2E/DX2                !
 ! D9    D(1,2,4,10)             0.0            estimate D2E/DX2                !
 ! D10   D(3,2,4,8)            -59.753          estimate D2E/DX2                !
 ! D11   D(3,2,4,9)             59.753          estimate D2E/DX2                !
 ! D12   D(3,2,4,10)           180.0            estimate D2E/DX2                !
 --------------------------------------------------------------------------------
 Trust Radius=3.00D-01 FncErr=5.00D-06 GrdErr=5.00D-06 EigMax=2.50D+02 EigMin=1.00D-04
 Number of steps in this run=     46 maximum allowed number of steps=    100.
 GradGradGradGradGradGradGradGradGradGradGradGradGradGradGradGradGradGrad

 Leave Link  103 at Wed Jun 24 00:00:41 2026, MaxMem=  1879048192 cpu:               0.0 elap:               0.0
 (Enter /CH/g16/l202.exe)
                          Input orientation:                          
 ---------------------------------------------------------------------
 Center     Atomic      Atomic             Coordinates (Angstroms)
 Number     Number       Type             X           Y           Z
 ---------------------------------------------------------------------
      1         12           0        0.000000    0.000000   -2.050000
      2          8           0        0.000000    0.000000    0.000000
      3         14           0        0.000000    1.480000    0.800000
      4         14           0        0.000000   -1.480000    0.800000
      5          1           0        1.180000    1.550000    1.620000
      6          1           0       -1.180000    1.550000    1.620000
      7          1           0        0.000000    2.550000   -0.180000
      8          1           0        1.180000   -1.550000    1.620000
      9          1           0       -1.180000   -1.550000    1.620000
     10          1           0        0.000000   -2.550000   -0.180000
 ---------------------------------------------------------------------
                    Distance matrix (angstroms):
                    1          2          3          4          5
     1  Mg   0.000000
     2  O    2.050000   0.000000
     3  Si   3.211370   1.682379   0.000000
     4  Si   3.211370   1.682379   2.960000   0.000000
     5  H    4.154973   2.533634   1.438645   3.353461   0.000000
     6  H    4.154973   2.533634   1.438645   3.353461   2.360000
     7  H    3.162183   2.556345   1.450965   4.147445   2.373268
     8  H    4.154973   2.533634   3.353461   1.438645   3.100000
     9  H    4.154973   2.533634   3.353461   1.438645   3.896101
    10  H    3.162183   2.556345   4.147445   1.450965   4.630594
                    6          7          8          9         10
     6  H    0.000000
     7  H    2.373268   0.000000
     8  H    3.896101   4.630594   0.000000
     9  H    3.100000   4.630594   2.360000   0.000000
    10  H    4.630594   5.100000   2.373268   2.373268   0.000000
 Stoichiometry    H6MgOSi2(2+)
 Framework group  C2V[C2(OMg),SGV(H2Si2),X(H4)]
 Deg. of freedom     8
 Full point group                 C2V     NOp   4
 Largest Abelian subgroup         C2V     NOp   4
 Largest concise Abelian subgroup C2V     NOp   4
                         Standard orientation:                         
 ---------------------------------------------------------------------
 Center     Atomic      Atomic             Coordinates (Angstroms)
 Number     Number       Type             X           Y           Z
 ---------------------------------------------------------------------
      1         12           0        0.000000   -0.000000    2.122593
      2          8           0        0.000000   -0.000000    0.072593
      3         14           0       -0.000000    1.480000   -0.727407
      4         14           0       -0.000000   -1.480000   -0.727407
      5          1           0       -1.180000    1.550000   -1.547407
      6          1           0        1.180000    1.550000   -1.547407
      7          1           0        0.000000    2.550000    0.252593
      8          1           0       -1.180000   -1.550000   -1.547407
      9          1           0        1.180000   -1.550000   -1.547407
     10          1           0       -0.000000   -2.550000    0.252593
 ---------------------------------------------------------------------
 Rotational constants (GHZ):           3.3476241           3.3066877           1.7273454
 Leave Link  202 at Wed Jun 24 00:00:41 2026, MaxMem=  1879048192 cpu:               0.0 elap:               0.0
 (Enter /CH/g16/l301.exe)
 Standard basis: def2SVP (5D, 7F)
 Ernie: Thresh=  0.10000D-02 Tol=  0.10000D-05 Strict=F.
 There are    41 symmetry adapted cartesian basis functions of A1  symmetry.
 There are    13 symmetry adapted cartesian basis functions of A2  symmetry.
 There are    18 symmetry adapted cartesian basis functions of B1  symmetry.
 There are    30 symmetry adapted cartesian basis functions of B2  symmetry.
 There are    38 symmetry adapted basis functions of A1  symmetry.
 There are    13 symmetry adapted basis functions of A2  symmetry.
 There are    18 symmetry adapted basis functions of B1  symmetry.
 There are    29 symmetry adapted basis functions of B2  symmetry.
    98 basis functions,   178 primitive gaussians,   102 cartesian basis functions
    26 alpha electrons       26 beta electrons
       nuclear repulsion energy       251.5042905643 Hartrees.
 IExCor=  402 DFT=T Ex+Corr=B3LYP ExCW=0 ScaHFX=  0.200000
 ScaDFX=  0.800000  0.720000  1.000000  0.810000 ScalE2=  1.000000  1.000000
 IRadAn=      5 IRanWt=     -1 IRanGd=            0 ICorTp=0 IEmpDi=141
 NAtoms=   10 NActive=   10 NUniq=    5 SFac= 4.00D+00 NAtFMM=   60 NAOKFM=F Big=F
 Integral buffers will be    131072 words long.
 Raffenetti 2 integral format.
 Two-electron integral symmetry is turned on.
 R6Disp:  Grimme-D3(BJ) Dispersion energy=       -0.0178941145 Hartrees.
 Nuclear repulsion after empirical dispersion term =      251.4863964498 Hartrees.
 ------------------------------------------------------------------------------
 Polarizable Continuum Model (PCM)
 =================================
 Model                : PCM.
 Atomic radii         : SMD-Coulomb.
 Polarization charges : Total charges.
 Charge compensation  : None.
 Solution method      : On-the-fly selection.
 Cavity type          : VdW (van der Waals Surface) (Alpha=1.000).
 Cavity algorithm     : GePol (No added spheres)
                        Default sphere list used, NSphG=   10.
                        Lebedev-Laikov grids with approx.  5.0 points / Ang**2.
                        Smoothing algorithm: York/Karplus (Gamma=1.0000).
                        Polarization charges: spherical gaussians, with
                                              point-specific exponents (IZeta= 3).
                        Self-potential: point-specific (ISelfS= 7).
                        Self-field    : sphere-specific E.n sum rule (ISelfD= 2).
 1st derivatives      : Analytical E(r).r(x)/FMM algorithm (CHGder, D1EAlg=3).
                        Cavity 1st derivative terms included.
 Solvent              : TetraHydroFuran, Eps=   7.425700 Eps(inf)=   1.974025
 ------------------------------------------------------------------------------
 Spheres list:
 ISph  on   Nord     Re0    Alpha      Xe            Ye            Ze
    1  Mg      1    1.7300  1.000      0.000000     -0.000000      2.122593
    2   O      2    2.2940  1.000      0.000000      0.000000      0.072593
    3  Si      3    2.4700  1.000     -0.000000      1.480000     -0.727407
    4  Si      4    2.4700  1.000     -0.000000     -1.480000     -0.727407
    5   H      5    1.2000  1.000     -1.180000      1.550000     -1.547407
    6   H      6    1.2000  1.000      1.180000      1.550000     -1.547407
    7   H      7    1.2000  1.000     -0.000000      2.550000      0.252593
    8   H      8    1.2000  1.000     -1.180000     -1.550000     -1.547407
    9   H      9    1.2000  1.000      1.180000     -1.550000     -1.547407
   10   H     10    1.2000  1.000     -0.000000     -2.550000      0.252593
 ------------------------------------------------------------------------------
 GePol: Number of generator spheres                  =      10
 GePol: Total number of spheres                      =      10
 GePol: Number of exposed spheres                    =      10 (100.00%)
 GePol: Number of points                             =    1009
 GePol: Average weight of points                     =       0.14
 GePol: Minimum weight of points                     =   0.17D-05
 GePol: Maximum weight of points                     =    0.21501
 GePol: Number of points with low weight             =      36
 GePol: Fraction of low-weight points (<1% of avg)   =       3.57%
 GePol: Cavity surface area                          =    140.790 Ang**2
 GePol: Cavity volume                                =    133.659 Ang**3
 ------------------------------------------------------------------------------
 Atomic radii for non-electrostatic terms: SMD-CDS.
 ------------------------------------------------------------------------------
 PCM non-electrostatic energy =         0.0009819930 Hartrees.
 Nuclear repulsion after PCM non-electrostatic terms =      251.4873784428 Hartrees.
 Leave Link  301 at Wed Jun 24 00:00:41 2026, MaxMem=  1879048192 cpu:               0.0 elap:               0.0
 (Enter /CH/g16/l302.exe)
 NPDir=0 NMtPBC=     1 NCelOv=     1 NCel=       1 NClECP=     1 NCelD=      1
         NCelK=      1 NCelE2=     1 NClLst=     1 CellRange=     0.0.
 One-electron integrals computed using PRISM.
 One-electron integral symmetry used in STVInt
   4 Symmetry operations used in ECPInt.
 ECPInt:  NShTT=    1176 NPrTT=    4756 LenC2=    1173 LenP2D=    3834.
 LDataN:  DoStor=T MaxTD1= 4 Len=   56
 NBasis=    98 RedAO= T EigKep=  5.91D-03  NBF=    38    13    18    29
 NBsUse=    98 1.00D-06 EigRej= -1.00D+00 NBFU=    38    13    18    29
 Precomputing XC quadrature grid using
 IXCGrd= 4 IRadAn=           5 IRanWt=          -1 IRanGd=           0 AccXCQ= 0.00D+00.
 Generated NRdTot=       0 NPtTot=           0 NUsed=           0 NTot=          32
 NSgBfM=   102   102   102   102   102 MxSgAt=    10 MxSgA2=    10.
 Leave Link  302 at Wed Jun 24 00:00:41 2026, MaxMem=  1879048192 cpu:               0.4 elap:               0.1
 (Enter /CH/g16/l303.exe)
 DipDrv:  MaxL=1.
 Leave Link  303 at Wed Jun 24 00:00:41 2026, MaxMem=  1879048192 cpu:               0.0 elap:               0.0
 (Enter /CH/g16/l401.exe)
 ExpMin= 3.36D-02 ExpMax= 6.90D+03 ExpMxC= 1.04D+03 IAcc=3 IRadAn=         5 AccDes= 0.00D+00
 Harris functional with IExCor=  402 and IRadAn=       5 diagonalized for initial guess.
 HarFok:  IExCor=  402 AccDes= 0.00D+00 IRadAn=         5 IDoV= 1 UseB2=F ITyADJ=14
 ICtDFT=  3500011 ScaDFX=  1.000000  1.000000  1.000000  1.000000
 FoFCou: FMM=F IPFlag=           0 FMFlag=      100000 FMFlg1=           0
         NFxFlg=           0 DoJE=T BraDBF=F KetDBF=T FulRan=T
         wScrn=  0.000000 ICntrl=       500 IOpCl=  0 I1Cent=   200000004 NGrid=           0
         NMat0=    1 NMatS0=      1 NMatT0=    0 NMatD0=    1 NMtDS0=    0 NMtDT0=    0
 Petite list used in FoFCou.
 Harris En= -857.300036025091    
 JPrj=0 DoOrth=F DoCkMO=F.
 Initial guess orbital symmetries:
       Occupied  (B2) (A1) (A1) (A1) (B2) (A1) (B1) (A2) (B2) (A1)
                 (A1) (B2) (A1) (A1) (B1) (B2) (A1) (B2) (A1) (A1)
                 (B2) (B1) (A2) (B2) (A1) (B1)
       Virtual   (A1) (A1) (B2) (B1) (A1) (A2) (B2) (A1) (B1) (A1)
                 (B2) (B2) (A1) (A1) (B2) (B1) (A2) (A1) (B1) (B2)
                 (A1) (A2) (A1) (B2) (B1) (B2) (A1) (A1) (B1) (A2)
                 (B2) (A1) (B1) (B2) (A1) (A2) (A1) (B2) (B2) (A1)
                 (B1) (B2) (A1) (A2) (B2) (B1) (B2) (A1) (A1) (B1)
                 (A2) (A2) (A1) (B1) (B2) (B2) (A1) (B1) (A2) (B2)
                 (A1) (A1) (B2) (B1) (A1) (B2) (A2) (B1) (A1) (A2)
                 (A1) (B2)
 The electronic state of the initial guess is 1-A1.
 Leave Link  401 at Wed Jun 24 00:00:41 2026, MaxMem=  1879048192 cpu:               0.6 elap:               0.1
 (Enter /CH/g16/l502.exe)
 Keep R1 ints in memory in symmetry-blocked form, NReq=19196752.
 FoFCou: FMM=F IPFlag=           0 FMFlag=           0 FMFlg1=           0
         NFxFlg=           0 DoJE=F BraDBF=F KetDBF=F FulRan=T
         wScrn=  0.000000 ICntrl=       600 IOpCl=  0 I1Cent=           0 NGrid=           0
         NMat0=    1 NMatS0=   4851 NMatT0=    0 NMatD0=    1 NMtDS0=    0 NMtDT0=    0
 Petite list used in FoFCou.
 Closed shell SCF:
 Using DIIS extrapolation, IDIIS=  1040.
 NGot=  1879048192 LenX=  1876004648 LenY=  1875993803
 Requested convergence on RMS density matrix=1.00D-08 within 128 cycles.
 Requested convergence on MAX density matrix=1.00D-06.
 Requested convergence on             energy=1.00D-06.
 No special actions if energy rises.

 Cycle   1  Pass 1  IDiag  1:
 Inv3:  Mode=1 IEnd=     3054243.
 Iteration    1 A*A^-1 deviation from unit magnitude is 3.11D-15 for    586.
 Iteration    1 A*A^-1 deviation from orthogonality  is 1.45D-15 for    640     79.
 Iteration    1 A^-1*A deviation from unit magnitude is 3.11D-15 for    586.
 Iteration    1 A^-1*A deviation from orthogonality  is 1.65D-15 for    622    109.
 E= -857.332442462662    
 DIIS: error= 2.73D-02 at cycle   1 NSaved=   1.
 NSaved= 1 IEnMin= 1 EnMin= -857.332442462662     IErMin= 1 ErrMin= 2.73D-02
 ErrMax= 2.73D-02  0.00D+00 EMaxC= 1.00D-01 BMatC= 9.71D-02 BMatP= 9.71D-02
 IDIUse=3 WtCom= 7.27D-01 WtEn= 2.73D-01
 Coeff-Com:  0.100D+01
 Coeff-En:   0.100D+01
 Coeff:      0.100D+01
 Gap=     0.196 Goal=   None    Shift=    0.000
 GapD=    0.196 DampG=1.000 DampE=0.500 DampFc=0.5000 IDamp=-1.
 Damping current iteration by 5.00D-01
 RMSDP=4.79D-03 MaxDP=1.33D-01              OVMax= 1.15D-01

 Cycle   2  Pass 1  IDiag  1:
 E= -857.361279188121     Delta-E=       -0.028836725460 Rises=F Damp=T
 DIIS: error= 1.25D-02 at cycle   2 NSaved=   2.
 NSaved= 2 IEnMin= 2 EnMin= -857.361279188121     IErMin= 2 ErrMin= 1.25D-02
 ErrMax= 1.25D-02  0.00D+00 EMaxC= 1.00D-01 BMatC= 1.13D-02 BMatP= 9.71D-02
 IDIUse=3 WtCom= 8.75D-01 WtEn= 1.25D-01
 Coeff-Com:  0.126D+00 0.874D+00
 Coeff-En:   0.189D+00 0.811D+00
 Coeff:      0.134D+00 0.866D+00
 Gap=     0.240 Goal=   None    Shift=    0.000
 RMSDP=1.77D-03 MaxDP=2.96D-02 DE=-2.88D-02 OVMax= 9.55D-02

 Cycle   3  Pass 1  IDiag  1:
 E= -857.404614836037     Delta-E=       -0.043335647916 Rises=F Damp=F
 DIIS: error= 1.13D-02 at cycle   3 NSaved=   3.
 NSaved= 3 IEnMin= 3 EnMin= -857.404614836037     IErMin= 3 ErrMin= 1.13D-02
 ErrMax= 1.13D-02  0.00D+00 EMaxC= 1.00D-01 BMatC= 7.02D-03 BMatP= 1.13D-02
 IDIUse=3 WtCom= 8.87D-01 WtEn= 1.13D-01
 Coeff-Com: -0.750D-01 0.431D+00 0.644D+00
 Coeff-En:   0.000D+00 0.000D+00 0.100D+01
 Coeff:     -0.665D-01 0.383D+00 0.684D+00
 Gap=     0.236 Goal=   None    Shift=    0.000
 RMSDP=8.56D-04 MaxDP=1.90D-02 DE=-4.33D-02 OVMax= 2.26D-02

 Cycle   4  Pass 1  IDiag  1:
 E= -857.410522732345     Delta-E=       -0.005907896308 Rises=F Damp=F
 DIIS: error= 2.33D-03 at cycle   4 NSaved=   4.
 NSaved= 4 IEnMin= 4 EnMin= -857.410522732345     IErMin= 4 ErrMin= 2.33D-03
 ErrMax= 2.33D-03  0.00D+00 EMaxC= 1.00D-01 BMatC= 3.27D-04 BMatP= 7.02D-03
 IDIUse=3 WtCom= 9.77D-01 WtEn= 2.33D-02
 Coeff-Com: -0.795D-02 0.682D-01 0.237D+00 0.703D+00
 Coeff-En:   0.000D+00 0.000D+00 0.000D+00 0.100D+01
 Coeff:     -0.777D-02 0.666D-01 0.231D+00 0.710D+00
 Gap=     0.237 Goal=   None    Shift=    0.000
 RMSDP=1.83D-04 MaxDP=4.37D-03 DE=-5.91D-03 OVMax= 4.17D-03

 Cycle   5  Pass 1  IDiag  1:
 E= -857.410810493246     Delta-E=       -0.000287760901 Rises=F Damp=F
 DIIS: error= 1.39D-04 at cycle   5 NSaved=   5.
 NSaved= 5 IEnMin= 5 EnMin= -857.410810493246     IErMin= 5 ErrMin= 1.39D-04
 ErrMax= 1.39D-04  0.00D+00 EMaxC= 1.00D-01 BMatC= 1.80D-06 BMatP= 3.27D-04
 IDIUse=3 WtCom= 9.99D-01 WtEn= 1.39D-03
 Coeff-Com:  0.355D-03-0.634D-03 0.198D-01 0.147D+00 0.833D+00
 Coeff-En:   0.000D+00 0.000D+00 0.000D+00 0.000D+00 0.100D+01
 Coeff:      0.354D-03-0.633D-03 0.197D-01 0.147D+00 0.834D+00
 Gap=     0.236 Goal=   None    Shift=    0.000
 RMSDP=1.70D-05 MaxDP=5.82D-04 DE=-2.88D-04 OVMax= 3.32D-04

 Cycle   6  Pass 1  IDiag  1:
 E= -857.410812286902     Delta-E=       -0.000001793655 Rises=F Damp=F
 DIIS: error= 1.23D-05 at cycle   6 NSaved=   6.
 NSaved= 6 IEnMin= 6 EnMin= -857.410812286902     IErMin= 6 ErrMin= 1.23D-05
 ErrMax= 1.23D-05  0.00D+00 EMaxC= 1.00D-01 BMatC= 1.25D-08 BMatP= 1.80D-06
 IDIUse=1 WtCom= 1.00D+00 WtEn= 0.00D+00
 Coeff-Com:  0.140D-03-0.122D-02-0.770D-03 0.137D-01 0.142D+00 0.846D+00
 Coeff:      0.140D-03-0.122D-02-0.770D-03 0.137D-01 0.142D+00 0.846D+00
 Gap=     0.236 Goal=   None    Shift=    0.000
 RMSDP=1.31D-06 MaxDP=1.70D-05 DE=-1.79D-06 OVMax= 3.65D-05

 Cycle   7  Pass 1  IDiag  1:
 E= -857.410812302271     Delta-E=       -0.000000015369 Rises=F Damp=F
 DIIS: error= 1.36D-06 at cycle   7 NSaved=   7.
 NSaved= 7 IEnMin= 7 EnMin= -857.410812302271     IErMin= 7 ErrMin= 1.36D-06
 ErrMax= 1.36D-06  0.00D+00 EMaxC= 1.00D-01 BMatC= 1.01D-10 BMatP= 1.25D-08
 IDIUse=1 WtCom= 1.00D+00 WtEn= 0.00D+00
 Coeff-Com: -0.361D-05-0.538D-04-0.183D-03-0.653D-03 0.252D-02 0.669D-01
 Coeff-Com:  0.931D+00
 Coeff:     -0.361D-05-0.538D-04-0.183D-03-0.653D-03 0.252D-02 0.669D-01
 Coeff:      0.931D+00
 Gap=     0.236 Goal=   None    Shift=    0.000
 RMSDP=1.83D-07 MaxDP=2.67D-06 DE=-1.54D-08 OVMax= 5.85D-06

 Cycle   8  Pass 1  IDiag  1:
 E= -857.410812302423     Delta-E=       -0.000000000152 Rises=F Damp=F
 DIIS: error= 1.90D-07 at cycle   8 NSaved=   8.
 NSaved= 8 IEnMin= 8 EnMin= -857.410812302423     IErMin= 8 ErrMin= 1.90D-07
 ErrMax= 1.90D-07  0.00D+00 EMaxC= 1.00D-01 BMatC= 4.13D-12 BMatP= 1.01D-10
 IDIUse=1 WtCom= 1.00D+00 WtEn= 0.00D+00
 Coeff-Com: -0.566D-05 0.188D-04-0.235D-04-0.428D-03-0.229D-02-0.376D-02
 Coeff-Com:  0.194D+00 0.813D+00
 Coeff:     -0.566D-05 0.188D-04-0.235D-04-0.428D-03-0.229D-02-0.376D-02
 Coeff:      0.194D+00 0.813D+00
 Gap=     0.236 Goal=   None    Shift=    0.000
 RMSDP=2.76D-08 MaxDP=5.44D-07 DE=-1.52D-10 OVMax= 7.72D-07

 Cycle   9  Pass 1  IDiag  1:
 E= -857.410812302432     Delta-E=       -0.000000000009 Rises=F Damp=F
 DIIS: error= 7.20D-08 at cycle   9 NSaved=   9.
 NSaved= 9 IEnMin= 9 EnMin= -857.410812302432     IErMin= 9 ErrMin= 7.20D-08
 ErrMax= 7.20D-08  0.00D+00 EMaxC= 1.00D-01 BMatC= 3.32D-13 BMatP= 4.13D-12
 IDIUse=1 WtCom= 1.00D+00 WtEn= 0.00D+00
 Coeff-Com: -0.104D-05 0.304D-05-0.414D-05-0.350D-04-0.298D-03-0.172D-02
 Coeff-Com:  0.242D-02 0.810D-01 0.919D+00
 Coeff:     -0.104D-05 0.304D-05-0.414D-05-0.350D-04-0.298D-03-0.172D-02
 Coeff:      0.242D-02 0.810D-01 0.919D+00
 Gap=     0.236 Goal=   None    Shift=    0.000
 RMSDP=4.98D-09 MaxDP=1.17D-07 DE=-9.44D-12 OVMax= 1.41D-07

 Error on total polarization charges =  0.02118
 SCF Done:  E(RB3LYP) =  -857.410812302     A.U. after    9 cycles
            NFock=  9  Conv=0.50D-08     -V/T= 2.0045
 KE= 8.535634524731D+02 PE=-2.521614416559D+03 EE= 5.591527733410D+02
 SMD-CDS (non-electrostatic) energy       (kcal/mol) =       0.62
 (included in total energy above)
 Leave Link  502 at Wed Jun 24 00:00:42 2026, MaxMem=  1879048192 cpu:               8.6 elap:               1.2
 (Enter /CH/g16/l601.exe)
 Copying SCF densities to generalized density rwf, IOpCl= 0 IROHF=0.

 **********************************************************************

            Population analysis using the SCF Density.

 **********************************************************************

 Orbital symmetries:
       Occupied  (B2) (A1) (A1) (A1) (A1) (B2) (A1) (B2) (A1) (B2)
                 (B1) (A2) (A1) (B2) (B1) (A1) (A1) (B2) (A1) (A1)
                 (B2) (B1) (B2) (A1) (A2) (B1)
       Virtual   (A1) (A1) (B2) (B1) (A1) (A2) (A1) (B2) (A1) (B1)
                 (B2) (A1) (B2) (A1) (B2) (B1) (A2) (B1) (A1) (B2)
                 (A1) (B2) (A1) (A2) (B1) (B2) (A1) (A1) (B1) (A2)
                 (B2) (B1) (A1) (B2) (A1) (A2) (A1) (B2) (B2) (A1)
                 (B2) (B1) (A1) (A2) (B2) (B1) (B2) (A1) (A1) (B1)
                 (A2) (A2) (A1) (B1) (B2) (B2) (A1) (B1) (A2) (B2)
                 (A1) (A1) (B2) (B1) (A1) (B2) (A2) (B1) (A1) (A2)
                 (A1) (B2)
 The electronic state is 1-A1.
 Alpha  occ. eigenvalues --  -66.19720 -66.19720 -47.04666 -19.25830  -5.36675
 Alpha  occ. eigenvalues --   -5.36675  -3.73127  -3.73124  -3.72695  -3.72695
 Alpha  occ. eigenvalues --   -3.72630  -3.72628  -3.30669  -2.05394  -2.05343
 Alpha  occ. eigenvalues --   -2.05244  -1.10127  -0.67051  -0.60071  -0.53256
 Alpha  occ. eigenvalues --   -0.50834  -0.50796  -0.40916  -0.40624  -0.40294
 Alpha  occ. eigenvalues --   -0.38567
 Alpha virt. eigenvalues --   -0.14949  -0.05381  -0.03816  -0.03220  -0.00899
 Alpha virt. eigenvalues --    0.01091   0.01982   0.02325   0.05041   0.05337
 Alpha virt. eigenvalues --    0.06130   0.07872   0.09096   0.15275   0.17328
 Alpha virt. eigenvalues --    0.18296   0.18906   0.21168   0.21637   0.23454
 Alpha virt. eigenvalues --    0.25893   0.27648   0.28197   0.28705   0.29673
 Alpha virt. eigenvalues --    0.32358   0.32998   0.35671   0.37550   0.38972
 Alpha virt. eigenvalues --    0.44337   0.50048   0.50622   0.50739   0.51793
 Alpha virt. eigenvalues --    0.52884   0.54729   0.58129   0.59824   0.82823
 Alpha virt. eigenvalues --    0.84834   0.86357   0.87105   0.91925   0.92704
 Alpha virt. eigenvalues --    1.05528   1.16555   1.23467   1.26035   1.31377
 Alpha virt. eigenvalues --    1.31478   1.43431   1.51933   1.52860   1.58597
 Alpha virt. eigenvalues --    1.62423   1.65230   1.68764   1.70862   1.75886
 Alpha virt. eigenvalues --    1.77555   1.96563   1.99130   2.14527   2.16458
 Alpha virt. eigenvalues --    2.17918   2.19278   2.57934   2.58692   2.61507
 Alpha virt. eigenvalues --    2.94161   2.97809
          Condensed to atoms (all electrons):
               1          2          3          4          5          6
     1  Mg  10.103494   0.186446  -0.002100  -0.002100   0.001652   0.001652
     2  O    0.186446   8.140852   0.236734   0.236734  -0.012228  -0.012228
     3  Si  -0.002100   0.236734  11.924227  -0.016490   0.410903   0.410903
     4  Si  -0.002100   0.236734  -0.016490  11.924227  -0.003350  -0.003350
     5  H    0.001652  -0.012228   0.410903  -0.003350   0.676161  -0.019898
     6  H    0.001652  -0.012228   0.410903  -0.003350  -0.019898   0.676161
     7  H    0.003531  -0.009212   0.390253   0.003278  -0.014084  -0.014084
     8  H    0.001652  -0.012228  -0.003350   0.410903   0.002077  -0.000436
     9  H    0.001652  -0.012228  -0.003350   0.410903  -0.000436   0.002077
    10  H    0.003531  -0.009212   0.003278   0.390253  -0.000027  -0.000027
               7          8          9         10
     1  Mg   0.003531   0.001652   0.001652   0.003531
     2  O   -0.009212  -0.012228  -0.012228  -0.009212
     3  Si   0.390253  -0.003350  -0.003350   0.003278
     4  Si   0.003278   0.410903   0.410903   0.390253
     5  H   -0.014084   0.002077  -0.000436  -0.000027
     6  H   -0.014084  -0.000436   0.002077  -0.000027
     7  H    0.691414  -0.000027  -0.000027  -0.000008
     8  H   -0.000027   0.676161  -0.019898  -0.014084
     9  H   -0.000027  -0.019898   0.676161  -0.014084
    10  H   -0.000008  -0.014084  -0.014084   0.691414
 Mulliken charges:
               1
     1  Mg   1.700591
     2  O   -0.733429
     3  Si   0.648991
     4  Si   0.648991
     5  H   -0.040770
     6  H   -0.040770
     7  H   -0.051033
     8  H   -0.040770
     9  H   -0.040770
    10  H   -0.051033
 Sum of Mulliken charges =   2.00000
 Mulliken charges with hydrogens summed into heavy atoms:
               1
     1  Mg   1.700591
     2  O   -0.733429
     3  Si   0.516419
     4  Si   0.516419
 Electronic spatial extent (au):  <R**2>=            644.0688
 Charge=              2.0000 electrons
 Dipole moment (field-independent basis, Debye):
    X=             -0.0000    Y=             -0.0000    Z=             16.4136  Tot=             16.4136
 Quadrupole moment (field-independent basis, Debye-Ang):
   XX=            -36.5313   YY=            -29.4421   ZZ=              7.3071
   XY=             -0.0000   XZ=              0.0000   YZ=              0.0000
 Traceless Quadrupole moment (field-independent basis, Debye-Ang):
   XX=            -16.9759   YY=             -9.8867   ZZ=             26.8625
   XY=             -0.0000   XZ=              0.0000   YZ=              0.0000
 Octapole moment (field-independent basis, Debye-Ang**2):
  XXX=              0.0000  YYY=             -0.0000  ZZZ=            137.3485  XYY=              0.0000
  XXY=             -0.0000  XXZ=             17.0638  XZZ=              0.0000  YZZ=             -0.0000
  YYZ=              7.0766  XYZ=              0.0000
 Hexadecapole moment (field-independent basis, Debye-Ang**3):
 XXXX=            -76.1322 YYYY=           -432.4053 ZZZZ=            -37.8955 XXXY=             -0.0000
 XXXZ=             -0.0000 YYYX=             -0.0000 YYYZ=              0.0000 ZZZX=             -0.0000
 ZZZY=              0.0000 XXYY=            -91.7456 XXZZ=            -52.7555 YYZZ=           -108.4693
 XXYZ=              0.0000 YYXZ=             -0.0000 ZZXY=             -0.0000
 N-N= 2.514873784428D+02 E-N=-2.521614412526D+03  KE= 8.535634524731D+02
 Symmetry A1   KE= 4.984040167348D+02
 Symmetry A2   KE= 2.617710420374D+01
 Symmetry B1   KE= 4.574116885797D+01
 Symmetry B2   KE= 2.832411626766D+02
 No NMR shielding tensors so no spin-rotation constants.
 Leave Link  601 at Wed Jun 24 00:00:42 2026, MaxMem=  1879048192 cpu:               0.3 elap:               0.1
 (Enter /CH/g16/l701.exe)
 ... and contract with generalized density number  0.
 Compute integral first derivatives.
 R6Disp: Adding Grimme-D3(BJ) dispersion energy 1st derivatives to the gradient.
   4 Symmetry operations used in ECPInt.
 ECPInt:  NShTT=    1176 NPrTT=    4756 LenC2=    1173 LenP2D=    3834.
 LDataN:  DoStor=T MaxTD1= 5 Len=  102
 D1PCM: PCM CHGder 1st derivatives, ID1Alg=3 FixD1E=F DoIter=F DoCFld=F I1PDM=0.
 GePol: Maximum number of non-zero 1st derivatives   =     420
 Leave Link  701 at Wed Jun 24 00:00:43 2026, MaxMem=  1879048192 cpu:               1.7 elap:               0.3
 (Enter /CH/g16/l702.exe)
 L702 exits ... SP integral derivatives will be done elsewhere.
 Leave Link  702 at Wed Jun 24 00:00:43 2026, MaxMem=  1879048192 cpu:               0.1 elap:               0.0
 (Enter /CH/g16/l703.exe)
 Integral derivatives from FoFJK, PRISM(SPDF).
 Compute integral first derivatives, UseDBF=F ICtDFT=           0.
 Calling FoFJK, ICntrl=      2127 FMM=F ISym2X=1 I1Cent= 0 IOpClX= 0 NMat=1 NMatS=1 NMatT=0.
 FoFJK:  IHMeth= 1 ICntrl=    2127 DoSepK=F KAlg= 0 I1Cent=           0 FoldK=F
 IRaf=         0 NMat=       1 IRICut=       1 DoRegI=T DoRafI=F ISym2E= 1 IDoP0=0 IntGTp=1.
 FoFCou: FMM=F IPFlag=           0 FMFlag=      100000 FMFlg1=         800
         NFxFlg=           0 DoJE=F BraDBF=F KetDBF=F FulRan=T
         wScrn=  0.000000 ICntrl=      2127 IOpCl=  0 I1Cent=           0 NGrid=           0
         NMat0=    1 NMatS0=      1 NMatT0=    0 NMatD0=    1 NMtDS0=    0 NMtDT0=    0
 Petite list used in FoFCou.
 Leave Link  703 at Wed Jun 24 00:00:43 2026, MaxMem=  1879048192 cpu:               1.0 elap:               0.2
 (Enter /CH/g16/l716.exe)
 Dipole        =-1.46043788D-16 0.00000000D+00 6.45759176D+00
 ***** Axes restored to original set *****
 -------------------------------------------------------------------
 Center     Atomic                   Forces (Hartrees/Bohr)
 Number     Number              X              Y              Z
 -------------------------------------------------------------------
      1       12           0.000000000   -0.000000000   -0.004365768
      2        8           0.000000000    0.000000000   -0.044208849
      3       14           0.000000000    0.030348270    0.022469228
      4       14          -0.000000000   -0.030348270    0.022469228
      5        1           0.015504821   -0.001926982    0.008333610
      6        1          -0.015504821   -0.001926982    0.008333610
      7        1          -0.000000000    0.004517351   -0.014849139
      8        1           0.015504821    0.001926982    0.008333610
      9        1          -0.015504821    0.001926982    0.008333610
     10        1          -0.000000000   -0.004517351   -0.014849139
 -------------------------------------------------------------------
 Cartesian Forces:  Max     0.044208849 RMS     0.014788851
 Leave Link  716 at Wed Jun 24 00:00:43 2026, MaxMem=  1879048192 cpu:               0.0 elap:               0.0
 (Enter /CH/g16/l103.exe)

 GradGradGradGradGradGradGradGradGradGradGradGradGradGradGradGradGradGrad
 Berny optimization.
 FormGI is forming the generalized inverse of G from B-inverse, IUseBI=4.
 Internal  Forces:  Max     0.038830185 RMS     0.012238154
 Search for a local minimum.
 Step number   1 out of a maximum of   46
 All quantities printed in internal units (Hartrees-Bohrs-Radians)
 RMS Force = .12238D-01 SwitMx=.10000D-02 MixMth= 1
 Mixed Optimization -- RFO/linear search
 Second derivative matrix not updated -- first step.
 ITU=  0
     Eigenvalues ---    0.03249   0.03249   0.03249   0.09019   0.09019
     Eigenvalues ---    0.09106   0.09106   0.13328   0.16000   0.16000
     Eigenvalues ---    0.16000   0.16000   0.16000   0.16000   0.19216
     Eigenvalues ---    0.19216   0.19875   0.19875   0.19875   0.19875
     Eigenvalues ---    0.25000   0.25000   0.38097   0.38097
 RFO step:  Lambda=-1.93601587D-02 EMin= 3.24944971D-02
 Linear search not attempted -- first point.
 Iteration  1 RMS(Cart)=  0.05665681 RMS(Int)=  0.00222866
 Iteration  2 RMS(Cart)=  0.00314568 RMS(Int)=  0.00067956
 Iteration  3 RMS(Cart)=  0.00000716 RMS(Int)=  0.00067954
 Iteration  4 RMS(Cart)=  0.00000001 RMS(Int)=  0.00067954
 ITry= 1 IFail=0 DXMaxC= 1.42D-01 DCOld= 1.00D+10 DXMaxT= 3.00D-01 DXLimC= 3.00D+00 Rises=F
 ClnCor:  largest displacement from symmetrization is 1.19D-11 for atom     7.
 Variable       Old X    -DE/DX   Delta X   Delta X   Delta X     New X
                                 (Linear)    (Quad)   (Total)
    R1        3.87394   0.00437   0.00000   0.02860   0.02860   3.90254
    R2        3.17924   0.03883   0.00000   0.09699   0.09699   3.27623
    R3        3.17924   0.03883   0.00000   0.09699   0.09699   3.27623
    R4        2.71865   0.01737   0.00000   0.07966   0.07966   2.79830
    R5        2.71865   0.01737   0.00000   0.07966   0.07966   2.79830
    R6        2.74193   0.01336   0.00000   0.06317   0.06317   2.80509
    R7        2.71865   0.01737   0.00000   0.07966   0.07966   2.79830
    R8        2.71865   0.01737   0.00000   0.07966   0.07966   2.79830
    R9        2.74193   0.01336   0.00000   0.06317   0.06317   2.80509
    A1        2.06635   0.00252   0.00000   0.00936   0.00936   2.07571
    A2        2.06635   0.00252   0.00000   0.00936   0.00936   2.07571
    A3        2.15049  -0.00504   0.00000  -0.01871  -0.01871   2.13178
    A4        1.89003  -0.00297   0.00000  -0.01480  -0.01551   1.87452
    A5        1.89003  -0.00297   0.00000  -0.01480  -0.01551   1.87452
    A6        1.90452  -0.01466   0.00000  -0.08532  -0.08662   1.81790
    A7        1.92358   0.00547   0.00000   0.03809   0.03785   1.96143
    A8        1.92740   0.00724   0.00000   0.03663   0.03515   1.96255
    A9        1.92740   0.00724   0.00000   0.03663   0.03515   1.96255
   A10        1.89003  -0.00297   0.00000  -0.01480  -0.01551   1.87452
   A11        1.89003  -0.00297   0.00000  -0.01480  -0.01551   1.87452
   A12        1.90452  -0.01466   0.00000  -0.08532  -0.08662   1.81790
   A13        1.92358   0.00547   0.00000   0.03809   0.03785   1.96143
   A14        1.92740   0.00724   0.00000   0.03663   0.03515   1.96255
   A15        1.92740   0.00724   0.00000   0.03663   0.03515   1.96255
    D1       -2.09871   0.00159   0.00000   0.01439   0.01384  -2.08486
    D2        2.09871  -0.00159   0.00000  -0.01439  -0.01384   2.08486
    D3        0.00000   0.00000   0.00000   0.00000   0.00000   0.00000
    D4        1.04289   0.00159   0.00000   0.01439   0.01384   1.05673
    D5       -1.04289  -0.00159   0.00000  -0.01439  -0.01384  -1.05673
    D6        3.14159   0.00000   0.00000   0.00000   0.00000   3.14159
    D7        2.09871  -0.00159   0.00000  -0.01439  -0.01384   2.08486
    D8       -2.09871   0.00159   0.00000   0.01439   0.01384  -2.08486
    D9       -0.00000   0.00000   0.00000   0.00000   0.00000   0.00000
   D10       -1.04289  -0.00159   0.00000  -0.01439  -0.01384  -1.05673
   D11        1.04289   0.00159   0.00000   0.01439   0.01384   1.05673
   D12        3.14159  -0.00000   0.00000  -0.00000   0.00000   3.14159
         Item               Value     Threshold  Converged?
 Maximum Force            0.038830     0.000450     NO 
 RMS     Force            0.012238     0.000300     NO 
 Maximum Displacement     0.141650     0.001800     NO 
 RMS     Displacement     0.056920     0.001200     NO 
 Predicted change in Energy=-1.043406D-02
 Lowest energy point so far.  Saving SCF results.
 GradGradGradGradGradGradGradGradGradGradGradGradGradGradGradGradGradGrad

 Leave Link  103 at Wed Jun 24 00:00:43 2026, MaxMem=  1879048192 cpu:               0.0 elap:               0.0
 (Enter /CH/g16/l202.exe)
                          Input orientation:                          
 ---------------------------------------------------------------------
 Center     Atomic      Atomic             Coordinates (Angstroms)
 Number     Number       Type             X           Y           Z
 ---------------------------------------------------------------------
      1         12           0        0.000000   -0.000000   -2.074658
      2          8           0        0.000000   -0.000000   -0.009522
      3         14           0       -0.000000    1.517372    0.829119
      4         14           0        0.000000   -1.517372    0.829119
      5          1           0        1.230388    1.568884    1.651464
      6          1           0       -1.230388    1.568884    1.651464
      7          1           0       -0.000000    2.531371   -0.254958
      8          1           0        1.230388   -1.568884    1.651464
      9          1           0       -1.230388   -1.568884    1.651464
     10          1           0        0.000000   -2.531371   -0.254958
 ---------------------------------------------------------------------
                    Distance matrix (angstroms):
                    1          2          3          4          5
     1  Mg   0.000000
     2  O    2.065135   0.000000
     3  Si   3.276330   1.733706   0.000000
     4  Si   3.276330   1.733706   3.034744   0.000000
     5  H    4.226019   2.595020   1.480797   3.422731   0.000000
     6  H    4.226019   2.595020   1.480797   3.422731   2.460776
     7  H    3.117554   2.543241   1.484391   4.191365   2.464687
     8  H    4.226019   2.595020   3.422731   1.480797   3.137769
     9  H    4.226019   2.595020   3.422731   1.480797   3.987607
    10  H    3.117554   2.543241   4.191365   1.484391   4.686192
                    6          7          8          9         10
     6  H    0.000000
     7  H    2.464687   0.000000
     8  H    3.987607   4.686192   0.000000
     9  H    3.137769   4.686192   2.460776   0.000000
    10  H    4.686192   5.062741   2.464687   2.464687   0.000000
 Stoichiometry    H6MgOSi2(2+)
 Framework group  C2V[C2(OMg),SGV(H2Si2),X(H4)]
 Deg. of freedom     8
 Full point group                 C2V     NOp   4
 RotChk:  IX=0 Diff= 8.09D-16
 Largest Abelian subgroup         C2V     NOp   4
 Largest concise Abelian subgroup C2V     NOp   4
                         Standard orientation:                         
 ---------------------------------------------------------------------
 Center     Atomic      Atomic             Coordinates (Angstroms)
 Number     Number       Type             X           Y           Z
 ---------------------------------------------------------------------
      1         12           0        0.000000    0.000000    2.155013
      2          8           0        0.000000    0.000000    0.089878
      3         14           0       -0.000000    1.517372   -0.748764
      4         14           0       -0.000000   -1.517372   -0.748764
      5          1           0       -1.230388    1.568884   -1.571109
      6          1           0        1.230388    1.568884   -1.571109
      7          1           0       -0.000000    2.531371    0.335314
      8          1           0       -1.230388   -1.568884   -1.571109
      9          1           0        1.230388   -1.568884   -1.571109
     10          1           0       -0.000000   -2.531371    0.335314
 ---------------------------------------------------------------------
 Rotational constants (GHZ):           3.2032527           3.1812074           1.6600890
 Leave Link  202 at Wed Jun 24 00:00:43 2026, MaxMem=  1879048192 cpu:               0.0 elap:               0.0
 (Enter /CH/g16/l301.exe)
 Standard basis: def2SVP (5D, 7F)
 Ernie: Thresh=  0.10000D-02 Tol=  0.10000D-05 Strict=F.
 There are    41 symmetry adapted cartesian basis functions of A1  symmetry.
 There are    13 symmetry adapted cartesian basis functions of A2  symmetry.
 There are    18 symmetry adapted cartesian basis functions of B1  symmetry.
 There are    30 symmetry adapted cartesian basis functions of B2  symmetry.
 There are    38 symmetry adapted basis functions of A1  symmetry.
 There are    13 symmetry adapted basis functions of A2  symmetry.
 There are    18 symmetry adapted basis functions of B1  symmetry.
 There are    29 symmetry adapted basis functions of B2  symmetry.
    98 basis functions,   178 primitive gaussians,   102 cartesian basis functions
    26 alpha electrons       26 beta electrons
       nuclear repulsion energy       245.9906350918 Hartrees.
 IExCor=  402 DFT=T Ex+Corr=B3LYP ExCW=0 ScaHFX=  0.200000
 ScaDFX=  0.800000  0.720000  1.000000  0.810000 ScalE2=  1.000000  1.000000
 IRadAn=      5 IRanWt=     -1 IRanGd=            0 ICorTp=0 IEmpDi=141
 NAtoms=   10 NActive=   10 NUniq=    5 SFac= 4.00D+00 NAtFMM=   60 NAOKFM=F Big=F
 Integral buffers will be    131072 words long.
 Raffenetti 2 integral format.
 Two-electron integral symmetry is turned on.
 R6Disp:  Grimme-D3(BJ) Dispersion energy=       -0.0182172719 Hartrees.
 Nuclear repulsion after empirical dispersion term =      245.9724178199 Hartrees.
 ------------------------------------------------------------------------------
 Polarizable Continuum Model (PCM)
 =================================
 Model                : PCM.
 Atomic radii         : SMD-Coulomb.
 Polarization charges : Total charges.
 Charge compensation  : None.
 Solution method      : On-the-fly selection.
 Cavity type          : VdW (van der Waals Surface) (Alpha=1.000).
 Cavity algorithm     : GePol (No added spheres)
                        Default sphere list used, NSphG=   10.
                        Lebedev-Laikov grids with approx.  5.0 points / Ang**2.
                        Smoothing algorithm: York/Karplus (Gamma=1.0000).
                        Polarization charges: spherical gaussians, with
                                              point-specific exponents (IZeta= 3).
                        Self-potential: point-specific (ISelfS= 7).
                        Self-field    : sphere-specific E.n sum rule (ISelfD= 2).
 1st derivatives      : Analytical E(r).r(x)/FMM algorithm (CHGder, D1EAlg=3).
                        Cavity 1st derivative terms included.
 Solvent              : TetraHydroFuran, Eps=   7.425700 Eps(inf)=   1.974025
 ------------------------------------------------------------------------------
 Spheres list:
 ISph  on   Nord     Re0    Alpha      Xe            Ye            Ze
    1  Mg      1    1.7300  1.000      0.000000      0.000000      2.155013
    2   O      2    2.2940  1.000      0.000000     -0.000000      0.089878
    3  Si      3    2.4700  1.000     -0.000000      1.517372     -0.748764
    4  Si      4    2.4700  1.000     -0.000000     -1.517372     -0.748764
    5   H      5    1.2000  1.000     -1.230388      1.568884     -1.571109
    6   H      6    1.2000  1.000      1.230388      1.568884     -1.571109
    7   H      7    1.2000  1.000     -0.000000      2.531371      0.335314
    8   H      8    1.2000  1.000     -1.230388     -1.568884     -1.571109
    9   H      9    1.2000  1.000      1.230388     -1.568884     -1.571109
   10   H     10    1.2000  1.000     -0.000000     -2.531371      0.335314
 ------------------------------------------------------------------------------
 GePol: Number of generator spheres                  =      10
 GePol: Total number of spheres                      =      10
 GePol: Number of exposed spheres                    =      10 (100.00%)
 GePol: Number of points                             =    1023
 GePol: Average weight of points                     =       0.14
 GePol: Minimum weight of points                     =   0.30D-08
 GePol: Maximum weight of points                     =    0.21501
 GePol: Number of points with low weight             =      32
 GePol: Fraction of low-weight points (<1% of avg)   =       3.13%
 GePol: Cavity surface area                          =    143.171 Ang**2
 GePol: Cavity volume                                =    135.893 Ang**3
 ------------------------------------------------------------------------------
 Atomic radii for non-electrostatic terms: SMD-CDS.
 ------------------------------------------------------------------------------
 PCM non-electrostatic energy =         0.0010317358 Hartrees.
 Nuclear repulsion after PCM non-electrostatic terms =      245.9734495558 Hartrees.
 Leave Link  301 at Wed Jun 24 00:00:43 2026, MaxMem=  1879048192 cpu:               0.1 elap:               0.0
 (Enter /CH/g16/l302.exe)
 NPDir=0 NMtPBC=     1 NCelOv=     1 NCel=       1 NClECP=     1 NCelD=      1
         NCelK=      1 NCelE2=     1 NClLst=     1 CellRange=     0.0.
 One-electron integrals computed using PRISM.
 One-electron integral symmetry used in STVInt
   4 Symmetry operations used in ECPInt.
 ECPInt:  NShTT=    1176 NPrTT=    4756 LenC2=    1173 LenP2D=    3825.
 LDataN:  DoStor=T MaxTD1= 4 Len=   56
 NBasis=    98 RedAO= T EigKep=  7.01D-03  NBF=    38    13    18    29
 NBsUse=    98 1.00D-06 EigRej= -1.00D+00 NBFU=    38    13    18    29
 Precomputing XC quadrature grid using
 IXCGrd= 4 IRadAn=           5 IRanWt=          -1 IRanGd=           0 AccXCQ= 0.00D+00.
 Generated NRdTot=       0 NPtTot=           0 NUsed=           0 NTot=          32
 NSgBfM=   102   102   102   102   102 MxSgAt=    10 MxSgA2=    10.
 Leave Link  302 at Wed Jun 24 00:00:43 2026, MaxMem=  1879048192 cpu:               0.3 elap:               0.1
 (Enter /CH/g16/l303.exe)
 DipDrv:  MaxL=1.
 Leave Link  303 at Wed Jun 24 00:00:43 2026, MaxMem=  1879048192 cpu:               0.0 elap:               0.0
 (Enter /CH/g16/l401.exe)
 Initial guess from the checkpoint file:  "Mg_disiloxane.chk"
 B after Tr=     0.000000    0.000000   -0.000000
         Rot=    1.000000   -0.000000    0.000000   -0.000000 Ang=   0.00 deg.
 Guess basis will be translated and rotated to current coordinates.
 JPrj=2 DoOrth=T DoCkMO=T.
 Initial guess orbital symmetries:
       Occupied  (B2) (A1) (A1) (A1) (A1) (B2) (A1) (B2) (A1) (B2)
                 (B1) (A2) (A1) (B2) (B1) (A1) (A1) (B2) (A1) (A1)
                 (B2) (B1) (B2) (A1) (A2) (B1)
       Virtual   (A1) (A1) (B2) (B1) (A1) (A2) (A1) (B2) (A1) (B1)
                 (B2) (A1) (B2) (A1) (B2) (B1) (A2) (B1) (A1) (B2)
                 (A1) (B2) (A1) (A2) (B1) (B2) (A1) (A1) (B1) (A2)
                 (B2) (B1) (A1) (B2) (A1) (A2) (A1) (B2) (B2) (A1)
                 (B2) (B1) (A1) (A2) (B2) (B1) (B2) (A1) (A1) (B1)
                 (A2) (A2) (A1) (B1) (B2) (B2) (A1) (B1) (A2) (B2)
                 (A1) (A1) (B2) (B1) (A1) (B2) (A2) (B1) (A1) (A2)
                 (A1) (B2)
 The electronic state of the initial guess is 1-A1.
 Generating alternative initial guess.
 ExpMin= 3.36D-02 ExpMax= 6.90D+03 ExpMxC= 1.04D+03 IAcc=3 IRadAn=         5 AccDes= 0.00D+00
 Harris functional with IExCor=  402 and IRadAn=       5 diagonalized for initial guess.
 HarFok:  IExCor=  402 AccDes= 0.00D+00 IRadAn=         5 IDoV= 1 UseB2=F ITyADJ=14
 ICtDFT=  3500011 ScaDFX=  1.000000  1.000000  1.000000  1.000000
 FoFCou: FMM=F IPFlag=           0 FMFlag=      100000 FMFlg1=           0
         NFxFlg=           0 DoJE=T BraDBF=F KetDBF=T FulRan=T
         wScrn=  0.000000 ICntrl=       500 IOpCl=  0 I1Cent=   200000004 NGrid=           0
         NMat0=    1 NMatS0=      1 NMatT0=    0 NMatD0=    1 NMtDS0=    0 NMtDT0=    0
 Petite list used in FoFCou.
 Harris En= -857.302075231314    
 Leave Link  401 at Wed Jun 24 00:00:43 2026, MaxMem=  1879048192 cpu:               0.6 elap:               0.1
 (Enter /CH/g16/l502.exe)
 Keep R1 ints in memory in symmetry-blocked form, NReq=19196752.
 FoFCou: FMM=F IPFlag=           0 FMFlag=           0 FMFlg1=           0
         NFxFlg=           0 DoJE=F BraDBF=F KetDBF=F FulRan=T
         wScrn=  0.000000 ICntrl=       600 IOpCl=  0 I1Cent=           0 NGrid=           0
         NMat0=    1 NMatS0=   4851 NMatT0=    0 NMatD0=    1 NMtDS0=    0 NMtDT0=    0
 Petite list used in FoFCou.
 Closed shell SCF:
 Using DIIS extrapolation, IDIIS=  1040.
 NGot=  1879048192 LenX=  1876004648 LenY=  1875993803
 Requested convergence on RMS density matrix=1.00D-08 within 128 cycles.
 Requested convergence on MAX density matrix=1.00D-06.
 Requested convergence on             energy=1.00D-06.
 No special actions if energy rises.

 Cycle   1  Pass 1  IDiag  1:
 Inv3:  Mode=1 IEnd=     3139587.
 Iteration    1 A*A^-1 deviation from unit magnitude is 3.22D-15 for    571.
 Iteration    1 A*A^-1 deviation from orthogonality  is 1.85D-15 for    320    203.
 Iteration    1 A^-1*A deviation from unit magnitude is 3.22D-15 for    252.
 Iteration    1 A^-1*A deviation from orthogonality  is 1.75D-15 for    551    140.
 E= -857.420505991886    
 DIIS: error= 3.53D-03 at cycle   1 NSaved=   1.
 NSaved= 1 IEnMin= 1 EnMin= -857.420505991886     IErMin= 1 ErrMin= 3.53D-03
 ErrMax= 3.53D-03  0.00D+00 EMaxC= 1.00D-01 BMatC= 2.21D-03 BMatP= 2.21D-03
 IDIUse=3 WtCom= 9.65D-01 WtEn= 3.53D-02
 Coeff-Com:  0.100D+01
 Coeff-En:   0.100D+01
 Coeff:      0.100D+01
 Gap=     0.236 Goal=   None    Shift=    0.000
 GapD=    0.236 DampG=1.000 DampE=1.000 DampFc=1.0000 IDamp=-1.
 RMSDP=7.00D-04 MaxDP=1.19D-02              OVMax= 1.42D-02

 Cycle   2  Pass 1  IDiag  1:
 E= -857.421423783650     Delta-E=       -0.000917791764 Rises=F Damp=F
 DIIS: error= 4.24D-03 at cycle   2 NSaved=   2.
 NSaved= 2 IEnMin= 2 EnMin= -857.421423783650     IErMin= 1 ErrMin= 3.53D-03
 ErrMax= 4.24D-03  0.00D+00 EMaxC= 1.00D-01 BMatC= 1.09D-03 BMatP= 2.21D-03
 IDIUse=3 WtCom= 9.58D-01 WtEn= 4.24D-02
 Coeff-Com:  0.377D+00 0.623D+00
 Coeff-En:   0.128D+00 0.872D+00
 Coeff:      0.366D+00 0.634D+00
 Gap=     0.236 Goal=   None    Shift=    0.000
 RMSDP=3.63D-04 MaxDP=1.17D-02 DE=-9.18D-04 OVMax= 1.05D-02

 Cycle   3  Pass 1  IDiag  1:
 E= -857.421739347650     Delta-E=       -0.000315564000 Rises=F Damp=F
 DIIS: error= 3.40D-03 at cycle   3 NSaved=   3.
 NSaved= 3 IEnMin= 3 EnMin= -857.421739347650     IErMin= 3 ErrMin= 3.40D-03
 ErrMax= 3.40D-03  0.00D+00 EMaxC= 1.00D-01 BMatC= 6.25D-04 BMatP= 1.09D-03
 IDIUse=3 WtCom= 9.66D-01 WtEn= 3.40D-02
 Coeff-Com:  0.109D-01 0.429D+00 0.560D+00
 Coeff-En:   0.000D+00 0.400D+00 0.600D+00
 Coeff:      0.105D-01 0.428D+00 0.561D+00
 Gap=     0.235 Goal=   None    Shift=    0.000
 RMSDP=1.74D-04 MaxDP=5.22D-03 DE=-3.16D-04 OVMax= 4.87D-03

 Cycle   4  Pass 1  IDiag  1:
 E= -857.422212800769     Delta-E=       -0.000473453119 Rises=F Damp=F
 DIIS: error= 1.71D-04 at cycle   4 NSaved=   4.
 NSaved= 4 IEnMin= 4 EnMin= -857.422212800769     IErMin= 4 ErrMin= 1.71D-04
 ErrMax= 1.71D-04  0.00D+00 EMaxC= 1.00D-01 BMatC= 1.91D-06 BMatP= 6.25D-04
 IDIUse=3 WtCom= 9.98D-01 WtEn= 1.71D-03
 Coeff-Com: -0.303D-02 0.722D-01 0.133D+00 0.798D+00
 Coeff-En:   0.000D+00 0.000D+00 0.000D+00 0.100D+01
 Coeff:     -0.303D-02 0.721D-01 0.133D+00 0.798D+00
 Gap=     0.235 Goal=   None    Shift=    0.000
 RMSDP=1.33D-05 MaxDP=2.01D-04 DE=-4.73D-04 OVMax= 3.59D-04

 Cycle   5  Pass 1  IDiag  1:
 E= -857.422214705617     Delta-E=       -0.000001904848 Rises=F Damp=F
 DIIS: error= 1.45D-05 at cycle   5 NSaved=   5.
 NSaved= 5 IEnMin= 5 EnMin= -857.422214705617     IErMin= 5 ErrMin= 1.45D-05
 ErrMax= 1.45D-05  0.00D+00 EMaxC= 1.00D-01 BMatC= 1.58D-08 BMatP= 1.91D-06
 IDIUse=1 WtCom= 1.00D+00 WtEn= 0.00D+00
 Coeff-Com: -0.896D-03 0.456D-02 0.139D-01 0.150D+00 0.833D+00
 Coeff:     -0.896D-03 0.456D-02 0.139D-01 0.150D+00 0.833D+00
 Gap=     0.235 Goal=   None    Shift=    0.000
 RMSDP=1.95D-06 MaxDP=7.01D-05 DE=-1.90D-06 OVMax= 4.50D-05

 Cycle   6  Pass 1  IDiag  1:
 E= -857.422214722825     Delta-E=       -0.000000017209 Rises=F Damp=F
 DIIS: error= 2.24D-06 at cycle   6 NSaved=   6.
 NSaved= 6 IEnMin= 6 EnMin= -857.422214722825     IErMin= 6 ErrMin= 2.24D-06
 ErrMax= 2.24D-06  0.00D+00 EMaxC= 1.00D-01 BMatC= 8.28D-10 BMatP= 1.58D-08
 IDIUse=1 WtCom= 1.00D+00 WtEn= 0.00D+00
 Coeff-Com: -0.347D-04-0.258D-02-0.367D-02-0.367D-02 0.179D+00 0.831D+00
 Coeff:     -0.347D-04-0.258D-02-0.367D-02-0.367D-02 0.179D+00 0.831D+00
 Gap=     0.235 Goal=   None    Shift=    0.000
 RMSDP=5.57D-07 MaxDP=1.62D-05 DE=-1.72D-08 OVMax= 1.72D-05

 Cycle   7  Pass 1  IDiag  1:
 E= -857.422214724104     Delta-E=       -0.000000001278 Rises=F Damp=F
 DIIS: error= 4.79D-07 at cycle   7 NSaved=   7.
 NSaved= 7 IEnMin= 7 EnMin= -857.422214724104     IErMin= 7 ErrMin= 4.79D-07
 ErrMax= 4.79D-07  0.00D+00 EMaxC= 1.00D-01 BMatC= 3.08D-11 BMatP= 8.28D-10
 IDIUse=1 WtCom= 1.00D+00 WtEn= 0.00D+00
 Coeff-Com:  0.155D-04-0.551D-03-0.870D-03-0.359D-02 0.815D-02 0.185D+00
 Coeff-Com:  0.812D+00
 Coeff:      0.155D-04-0.551D-03-0.870D-03-0.359D-02 0.815D-02 0.185D+00
 Coeff:      0.812D+00
 Gap=     0.235 Goal=   None    Shift=    0.000
 RMSDP=1.04D-07 MaxDP=3.57D-06 DE=-1.28D-09 OVMax= 2.26D-06

 Cycle   8  Pass 1  IDiag  1:
 E= -857.422214724143     Delta-E=       -0.000000000040 Rises=F Damp=F
 DIIS: error= 4.54D-08 at cycle   8 NSaved=   8.
 NSaved= 8 IEnMin= 8 EnMin= -857.422214724143     IErMin= 8 ErrMin= 4.54D-08
 ErrMax= 4.54D-08  0.00D+00 EMaxC= 1.00D-01 BMatC= 2.27D-13 BMatP= 3.08D-11
 IDIUse=1 WtCom= 1.00D+00 WtEn= 0.00D+00
 Coeff-Com:  0.268D-05-0.227D-04-0.425D-04-0.349D-03-0.298D-02 0.479D-02
 Coeff-Com:  0.857D-01 0.913D+00
 Coeff:      0.268D-05-0.227D-04-0.425D-04-0.349D-03-0.298D-02 0.479D-02
 Coeff:      0.857D-01 0.913D+00
 Gap=     0.235 Goal=   None    Shift=    0.000
 RMSDP=9.13D-09 MaxDP=2.18D-07 DE=-3.97D-11 OVMax= 3.75D-07

 Error on total polarization charges =  0.02227
 SCF Done:  E(RB3LYP) =  -857.422214724     A.U. after    8 cycles
            NFock=  8  Conv=0.91D-08     -V/T= 2.0050
 KE= 8.531421014365D+02 PE=-2.510574242474D+03 EE= 5.540364767579D+02
 SMD-CDS (non-electrostatic) energy       (kcal/mol) =       0.65
 (included in total energy above)
 Leave Link  502 at Wed Jun 24 00:00:44 2026, MaxMem=  1879048192 cpu:               8.1 elap:               1.2
 (Enter /CH/g16/l701.exe)
 ... and contract with generalized density number  0.
 Compute integral first derivatives.
 R6Disp: Adding Grimme-D3(BJ) dispersion energy 1st derivatives to the gradient.
   4 Symmetry operations used in ECPInt.
 ECPInt:  NShTT=    1176 NPrTT=    4756 LenC2=    1173 LenP2D=    3825.
 LDataN:  DoStor=T MaxTD1= 5 Len=  102
 D1PCM: PCM CHGder 1st derivatives, ID1Alg=3 FixD1E=F DoIter=F DoCFld=F I1PDM=0.
 GePol: Maximum number of non-zero 1st derivatives   =     415
 Leave Link  701 at Wed Jun 24 00:00:45 2026, MaxMem=  1879048192 cpu:               1.7 elap:               0.3
 (Enter /CH/g16/l702.exe)
 L702 exits ... SP integral derivatives will be done elsewhere.
 Leave Link  702 at Wed Jun 24 00:00:45 2026, MaxMem=  1879048192 cpu:               0.0 elap:               0.0
 (Enter /CH/g16/l703.exe)
 Integral derivatives from FoFJK, PRISM(SPDF).
 Compute integral first derivatives, UseDBF=F ICtDFT=           0.
 Calling FoFJK, ICntrl=      2127 FMM=F ISym2X=1 I1Cent= 0 IOpClX= 0 NMat=1 NMatS=1 NMatT=0.
 FoFJK:  IHMeth= 1 ICntrl=    2127 DoSepK=F KAlg= 0 I1Cent=           0 FoldK=F
 IRaf=         0 NMat=       1 IRICut=       1 DoRegI=T DoRafI=F ISym2E= 1 IDoP0=0 IntGTp=1.
 FoFCou: FMM=F IPFlag=           0 FMFlag=      100000 FMFlg1=         800
         NFxFlg=           0 DoJE=F BraDBF=F KetDBF=F FulRan=T
         wScrn=  0.000000 ICntrl=      2127 IOpCl=  0 I1Cent=           0 NGrid=           0
         NMat0=    1 NMatS0=      1 NMatT0=    0 NMatD0=    1 NMtDS0=    0 NMtDT0=    0
 Petite list used in FoFCou.
 Leave Link  703 at Wed Jun 24 00:00:45 2026, MaxMem=  1879048192 cpu:               1.0 elap:               0.2
 (Enter /CH/g16/l716.exe)
 Dipole        =-1.41732516D-16-2.66453526D-15 6.33229442D+00
 ***** Axes restored to original set *****
 -------------------------------------------------------------------
 Center     Atomic                   Forces (Hartrees/Bohr)
 Number     Number              X              Y              Z
 -------------------------------------------------------------------
      1       12           0.000000000    0.000000000   -0.000634550
      2        8           0.000000000    0.000000000   -0.016557420
      3       14          -0.000000000    0.012849783    0.011339483
      4       14          -0.000000000   -0.012849783    0.011339483
      5        1           0.000053134   -0.000994657   -0.000552501
      6        1          -0.000053134   -0.000994657   -0.000552501
      7        1          -0.000000000   -0.001441952   -0.001638495
      8        1           0.000053134    0.000994657   -0.000552501
      9        1          -0.000053134    0.000994657   -0.000552501
     10        1          -0.000000000    0.001441952   -0.001638495
 -------------------------------------------------------------------
 Cartesian Forces:  Max     0.016557420 RMS     0.005405768
 Leave Link  716 at Wed Jun 24 00:00:45 2026, MaxMem=  1879048192 cpu:               0.0 elap:               0.0
 (Enter /CH/g16/l103.exe)

 GradGradGradGradGradGradGradGradGradGradGradGradGradGradGradGradGradGrad
 Berny optimization.
 Using GEDIIS/GDIIS optimizer.
 FormGI is forming the generalized inverse of G from B-inverse, IUseBI=4.
 Internal  Forces:  Max     0.012401376 RMS     0.003357144
 Search for a local minimum.
 Step number   2 out of a maximum of   46
 All quantities printed in internal units (Hartrees-Bohrs-Radians)
 RMS Force = .33571D-02 SwitMx=.10000D-02 MixMth= 1
 Mixed Optimization -- RFO/linear search
 Update second derivatives using D2CorX and points    1    2
 DE= -1.14D-02 DEPred=-1.04D-02 R= 1.09D+00
 TightC=F SS=  1.41D+00  RLast= 2.81D-01 DXNew= 5.0454D-01 8.4230D-01
 Trust test= 1.09D+00 RLast= 2.81D-01 DXMaxT set to 5.05D-01
 ITU=  1  0
 Use linear search instead of GDIIS.
     Eigenvalues ---    0.03249   0.03249   0.03249   0.09265   0.09270
     Eigenvalues ---    0.09554   0.09554   0.13320   0.14529   0.16000
     Eigenvalues ---    0.16000   0.16000   0.16000   0.16010   0.19216
     Eigenvalues ---    0.19314   0.19875   0.19875   0.19875   0.22212
     Eigenvalues ---    0.25000   0.25132   0.32450   0.38097
 RFO step:  Lambda=-9.07163944D-04 EMin= 3.24944971D-02
 Quartic linear search produced a step of  0.25975.
 Iteration  1 RMS(Cart)=  0.01685375 RMS(Int)=  0.00047950
 Iteration  2 RMS(Cart)=  0.00054224 RMS(Int)=  0.00036478
 Iteration  3 RMS(Cart)=  0.00000031 RMS(Int)=  0.00036478
 ITry= 1 IFail=0 DXMaxC= 3.31D-02 DCOld= 1.00D+10 DXMaxT= 5.05D-01 DXLimC= 3.00D+00 Rises=F
 ClnCor:  largest displacement from symmetrization is 1.43D-11 for atom     1.
 Variable       Old X    -DE/DX   Delta X   Delta X   Delta X     New X
                                 (Linear)    (Quad)   (Total)
    R1        3.90254   0.00063   0.00743  -0.00030   0.00713   3.90967
    R2        3.27623   0.01240   0.02519   0.02019   0.04538   3.32161
    R3        3.27623   0.01240   0.02519   0.02019   0.04538   3.32161
    R4        2.79830  -0.00030   0.02069  -0.01910   0.00159   2.79989
    R5        2.79830  -0.00030   0.02069  -0.01910   0.00159   2.79989
    R6        2.80509   0.00021   0.01641  -0.01229   0.00412   2.80921
    R7        2.79830  -0.00030   0.02069  -0.01910   0.00159   2.79989
    R8        2.79830  -0.00030   0.02069  -0.01910   0.00159   2.79989
    R9        2.80509   0.00021   0.01641  -0.01229   0.00412   2.80921
    A1        2.07571   0.00220   0.00243   0.00905   0.01148   2.08719
    A2        2.07571   0.00220   0.00243   0.00905   0.01148   2.08719
    A3        2.13178  -0.00441  -0.00486  -0.01811  -0.02297   2.10881
    A4        1.87452  -0.00138  -0.00403  -0.00678  -0.01119   1.86333
    A5        1.87452  -0.00138  -0.00403  -0.00678  -0.01119   1.86333
    A6        1.81790  -0.00419  -0.02250  -0.01474  -0.03791   1.77999
    A7        1.96143   0.00173   0.00983   0.00757   0.01722   1.97865
    A8        1.96255   0.00217   0.00913   0.00858   0.01691   1.97946
    A9        1.96255   0.00217   0.00913   0.00858   0.01691   1.97946
   A10        1.87452  -0.00138  -0.00403  -0.00678  -0.01119   1.86333
   A11        1.87452  -0.00138  -0.00403  -0.00678  -0.01119   1.86333
   A12        1.81790  -0.00419  -0.02250  -0.01474  -0.03791   1.77999
   A13        1.96143   0.00173   0.00983   0.00757   0.01722   1.97865
   A14        1.96255   0.00217   0.00913   0.00858   0.01691   1.97946
   A15        1.96255   0.00217   0.00913   0.00858   0.01691   1.97946
    D1       -2.08486   0.00026   0.00360   0.00072   0.00404  -2.08082
    D2        2.08486  -0.00026  -0.00360  -0.00072  -0.00404   2.08082
    D3       -0.00000  -0.00000   0.00000  -0.00000   0.00000   0.00000
    D4        1.05673   0.00026   0.00360   0.00072   0.00404   1.06077
    D5       -1.05673  -0.00026  -0.00360  -0.00072  -0.00404  -1.06077
    D6        3.14159   0.00000   0.00000  -0.00000   0.00000   3.14159
    D7        2.08486  -0.00026  -0.00360  -0.00072  -0.00404   2.08082
    D8       -2.08486   0.00026   0.00360   0.00072   0.00404  -2.08082
    D9       -0.00000  -0.00000   0.00000  -0.00000   0.00000   0.00000
   D10       -1.05673  -0.00026  -0.00360  -0.00072  -0.00404  -1.06077
   D11        1.05673   0.00026   0.00360   0.00072   0.00404   1.06077
   D12        3.14159  -0.00000   0.00000  -0.00000   0.00000   3.14159
         Item               Value     Threshold  Converged?
 Maximum Force            0.012401     0.000450     NO 
 RMS     Force            0.003357     0.000300     NO 
 Maximum Displacement     0.033129     0.001800     NO 
 RMS     Displacement     0.017093     0.001200     NO 
 Predicted change in Energy=-8.992688D-04
 Lowest energy point so far.  Saving SCF results.
 GradGradGradGradGradGradGradGradGradGradGradGradGradGradGradGradGradGrad

 Leave Link  103 at Wed Jun 24 00:00:45 2026, MaxMem=  1879048192 cpu:               0.0 elap:               0.0
 (Enter /CH/g16/l202.exe)
                          Input orientation:                          
 ---------------------------------------------------------------------
 Center     Atomic      Atomic             Coordinates (Angstroms)
 Number     Number       Type             X           Y           Z
 ---------------------------------------------------------------------
      1         12           0        0.000000   -0.000000   -2.092189
      2          8           0        0.000000   -0.000000   -0.023283
      3         14           0       -0.000000    1.528526    0.844585
      4         14           0        0.000000   -1.528526    0.844585
      5          1           0        1.238138    1.558113    1.657845
      6          1           0       -1.238138    1.558113    1.657845
      7          1           0       -0.000000    2.514970   -0.267538
      8          1           0        1.238138   -1.558113    1.657845
      9          1           0       -1.238138   -1.558113    1.657845
     10          1           0        0.000000   -2.514970   -0.267538
 ---------------------------------------------------------------------
                    Distance matrix (angstroms):
                    1          2          3          4          5
     1  Mg   0.000000
     2  O    2.068906   0.000000
     3  Si   3.310745   1.757722   0.000000
     4  Si   3.310745   1.757722   3.057051   0.000000
     5  H    4.245403   2.605166   1.481638   3.423699   0.000000
     6  H    4.245403   2.605166   1.481638   3.423699   2.476276
     7  H    3.107157   2.526803   1.486570   4.193647   2.481060
     8  H    4.245403   2.605166   3.423699   1.481638   3.116225
     9  H    4.245403   2.605166   3.423699   1.481638   3.980302
    10  H    3.107157   2.526803   4.193647   1.486570   4.672268
                    6          7          8          9         10
     6  H    0.000000
     7  H    2.481060   0.000000
     8  H    3.980302   4.672268   0.000000
     9  H    3.116225   4.672268   2.476276   0.000000
    10  H    4.672268   5.029940   2.481060   2.481060   0.000000
 Stoichiometry    H6MgOSi2(2+)
 Framework group  C2V[C2(OMg),SGV(H2Si2),X(H4)]
 Deg. of freedom     8
 Full point group                 C2V     NOp   4
 RotChk:  IX=0 Diff= 9.03D-16
 Largest Abelian subgroup         C2V     NOp   4
 Largest concise Abelian subgroup C2V     NOp   4
                         Standard orientation:                         
 ---------------------------------------------------------------------
 Center     Atomic      Atomic             Coordinates (Angstroms)
 Number     Number       Type             X           Y           Z
 ---------------------------------------------------------------------
      1         12           0        0.000000   -0.000000    2.174636
      2          8           0        0.000000   -0.000000    0.105730
      3         14           0        0.000000    1.528526   -0.762138
      4         14           0       -0.000000   -1.528526   -0.762138
      5          1           0       -1.238138    1.558113   -1.575397
      6          1           0        1.238138    1.558113   -1.575397
      7          1           0        0.000000    2.514970    0.349985
      8          1           0       -1.238138   -1.558113   -1.575397
      9          1           0        1.238138   -1.558113   -1.575397
     10          1           0       -0.000000   -2.514970    0.349985
 ---------------------------------------------------------------------
 Rotational constants (GHZ):           3.1695941           3.1151052           1.6338330
 Leave Link  202 at Wed Jun 24 00:00:45 2026, MaxMem=  1879048192 cpu:               0.0 elap:               0.0
 (Enter /CH/g16/l301.exe)
 Standard basis: def2SVP (5D, 7F)
 Ernie: Thresh=  0.10000D-02 Tol=  0.10000D-05 Strict=F.
 There are    41 symmetry adapted cartesian basis functions of A1  symmetry.
 There are    13 symmetry adapted cartesian basis functions of A2  symmetry.
 There are    18 symmetry adapted cartesian basis functions of B1  symmetry.
 There are    30 symmetry adapted cartesian basis functions of B2  symmetry.
 There are    38 symmetry adapted basis functions of A1  symmetry.
 There are    13 symmetry adapted basis functions of A2  symmetry.
 There are    18 symmetry adapted basis functions of B1  symmetry.
 There are    29 symmetry adapted basis functions of B2  symmetry.
    98 basis functions,   178 primitive gaussians,   102 cartesian basis functions
    26 alpha electrons       26 beta electrons
       nuclear repulsion energy       244.1467224798 Hartrees.
 IExCor=  402 DFT=T Ex+Corr=B3LYP ExCW=0 ScaHFX=  0.200000
 ScaDFX=  0.800000  0.720000  1.000000  0.810000 ScalE2=  1.000000  1.000000
 IRadAn=      5 IRanWt=     -1 IRanGd=            0 ICorTp=0 IEmpDi=141
 NAtoms=   10 NActive=   10 NUniq=    5 SFac= 4.00D+00 NAtFMM=   60 NAOKFM=F Big=F
 Integral buffers will be    131072 words long.
 Raffenetti 2 integral format.
 Two-electron integral symmetry is turned on.
 R6Disp:  Grimme-D3(BJ) Dispersion energy=       -0.0184675318 Hartrees.
 Nuclear repulsion after empirical dispersion term =      244.1282549480 Hartrees.
 ------------------------------------------------------------------------------
 Polarizable Continuum Model (PCM)
 =================================
 Model                : PCM.
 Atomic radii         : SMD-Coulomb.
 Polarization charges : Total charges.
 Charge compensation  : None.
 Solution method      : On-the-fly selection.
 Cavity type          : VdW (van der Waals Surface) (Alpha=1.000).
 Cavity algorithm     : GePol (No added spheres)
                        Default sphere list used, NSphG=   10.
                        Lebedev-Laikov grids with approx.  5.0 points / Ang**2.
                        Smoothing algorithm: York/Karplus (Gamma=1.0000).
                        Polarization charges: spherical gaussians, with
                                              point-specific exponents (IZeta= 3).
                        Self-potential: point-specific (ISelfS= 7).
                        Self-field    : sphere-specific E.n sum rule (ISelfD= 2).
 1st derivatives      : Analytical E(r).r(x)/FMM algorithm (CHGder, D1EAlg=3).
                        Cavity 1st derivative terms included.
 Solvent              : TetraHydroFuran, Eps=   7.425700 Eps(inf)=   1.974025
 ------------------------------------------------------------------------------
 Spheres list:
 ISph  on   Nord     Re0    Alpha      Xe            Ye            Ze
    1  Mg      1    1.7300  1.000      0.000000     -0.000000      2.174636
    2   O      2    2.2940  1.000     -0.000000     -0.000000      0.105730
    3  Si      3    2.4700  1.000      0.000000      1.528526     -0.762138
    4  Si      4    2.4700  1.000     -0.000000     -1.528526     -0.762138
    5   H      5    1.2000  1.000     -1.238138      1.558113     -1.575397
    6   H      6    1.2000  1.000      1.238138      1.558113     -1.575397
    7   H      7    1.2000  1.000      0.000000      2.514970      0.349985
    8   H      8    1.2000  1.000     -1.238138     -1.558113     -1.575397
    9   H      9    1.2000  1.000      1.238138     -1.558113     -1.575397
   10   H     10    1.2000  1.000     -0.000000     -2.514970      0.349985
 ------------------------------------------------------------------------------
 GePol: Number of generator spheres                  =      10
 GePol: Total number of spheres                      =      10
 GePol: Number of exposed spheres                    =      10 (100.00%)
 GePol: Number of points                             =    1025
 GePol: Average weight of points                     =       0.14
 GePol: Minimum weight of points                     =   0.43D-05
 GePol: Maximum weight of points                     =    0.21501
 GePol: Number of points with low weight             =      36
 GePol: Fraction of low-weight points (<1% of avg)   =       3.51%
 GePol: Cavity surface area                          =    143.928 Ang**2
 GePol: Cavity volume                                =    136.653 Ang**3
 ------------------------------------------------------------------------------
 Atomic radii for non-electrostatic terms: SMD-CDS.
 ------------------------------------------------------------------------------
 PCM non-electrostatic energy =         0.0010163213 Hartrees.
 Nuclear repulsion after PCM non-electrostatic terms =      244.1292712693 Hartrees.
 Leave Link  301 at Wed Jun 24 00:00:45 2026, MaxMem=  1879048192 cpu:               0.0 elap:               0.0
 (Enter /CH/g16/l302.exe)
 NPDir=0 NMtPBC=     1 NCelOv=     1 NCel=       1 NClECP=     1 NCelD=      1
         NCelK=      1 NCelE2=     1 NClLst=     1 CellRange=     0.0.
 One-electron integrals computed using PRISM.
 One-electron integral symmetry used in STVInt
   4 Symmetry operations used in ECPInt.
 ECPInt:  NShTT=    1176 NPrTT=    4756 LenC2=    1173 LenP2D=    3817.
 LDataN:  DoStor=T MaxTD1= 4 Len=   56
 NBasis=    98 RedAO= T EigKep=  7.18D-03  NBF=    38    13    18    29
 NBsUse=    98 1.00D-06 EigRej= -1.00D+00 NBFU=    38    13    18    29
 Precomputing XC quadrature grid using
 IXCGrd= 4 IRadAn=           5 IRanWt=          -1 IRanGd=           0 AccXCQ= 0.00D+00.
 Generated NRdTot=       0 NPtTot=           0 NUsed=           0 NTot=          32
 NSgBfM=   102   102   102   102   102 MxSgAt=    10 MxSgA2=    10.
 Leave Link  302 at Wed Jun 24 00:00:45 2026, MaxMem=  1879048192 cpu:               0.3 elap:               0.1
 (Enter /CH/g16/l303.exe)
 DipDrv:  MaxL=1.
 Leave Link  303 at Wed Jun 24 00:00:45 2026, MaxMem=  1879048192 cpu:               0.1 elap:               0.0
 (Enter /CH/g16/l401.exe)
 Initial guess from the checkpoint file:  "Mg_disiloxane.chk"
 B after Tr=     0.000000   -0.000000   -0.000000
         Rot=    1.000000    0.000000    0.000000    0.000000 Ang=   0.00 deg.
 Guess basis will be translated and rotated to current coordinates.
 JPrj=2 DoOrth=T DoCkMO=T.
 Initial guess orbital symmetries:
       Occupied  (B2) (A1) (A1) (A1) (B2) (A1) (A1) (B2) (B2) (A1)
                 (B1) (A2) (A1) (B2) (B1) (A1) (A1) (B2) (A1) (A1)
                 (B2) (B1) (B2) (A1) (A2) (B1)
       Virtual   (A1) (A1) (B2) (B1) (A1) (A2) (A1) (B2) (B1) (A1)
                 (B2) (A1) (B2) (A1) (B2) (B1) (A2) (B1) (A1) (B2)
                 (A1) (B2) (A1) (A2) (B1) (B2) (A1) (A1) (B1) (A2)
                 (B2) (B2) (A1) (B1) (A1) (A2) (A1) (B2) (B2) (A1)
                 (B2) (B1) (A1) (A2) (B2) (B1) (B2) (A1) (A1) (B1)
                 (A2) (A2) (A1) (B1) (B2) (B2) (A1) (B1) (A2) (B2)
[...]
 Search for a local minimum.
 Step number   6 out of a maximum of   46
 All quantities printed in internal units (Hartrees-Bohrs-Radians)
 RMS Force = .33824D-04 SwitMx=.10000D-02 MixMth= 2
 Mixed Optimization -- En-DIIS/RFO-DIIS
 Swapping is turned off.
 Update second derivatives using D2CorX and points    1    2    3    4    5
                                                      6
 DE= -5.25D-06 DEPred=-3.17D-06 R= 1.66D+00
 TightC=F SS=  1.41D+00  RLast= 8.76D-03 DXNew= 8.4853D-01 2.6283D-02
 Trust test= 1.66D+00 RLast= 8.76D-03 DXMaxT set to 5.05D-01
 ITU=  1  1  1  1  1  0
     Eigenvalues ---    0.03249   0.03249   0.03249   0.05585   0.09432
     Eigenvalues ---    0.09562   0.09756   0.09756   0.15178   0.16000
     Eigenvalues ---    0.16000   0.16000   0.16000   0.16817   0.19216
     Eigenvalues ---    0.19381   0.19875   0.19875   0.19875   0.21079
     Eigenvalues ---    0.23512   0.25000   0.25712   0.38097
 En-DIIS/RFO-DIIS/Sim-DIIS IScMMF=       -3 using points:     6    5    4    3
 RFO step:  Lambda=-2.23615310D-07.
 NNeg= 0 NGDIIS= 4 SimSw=  2.50D-01 Rises=F DC= -5.25D-06 SmlDif=  1.00D-05
 NRisDI= 0 DoIntr=F SqrtH=F CThrHd= 10.0 CDAdj=  3.0
 RMS Error=  0.2249680409D-03 NUsed= 4 OKEnD=F EnDIS=F
 InvSVX:  RCond= 2.08D-07 Info=           0 Equed=N FErr=  6.90D-14 BErr=  2.21D-17
 DidBck=F Rises=F RFO-DIIS coefs:    1.14460   -0.13915   -0.01484    0.00940
 Iteration  1 RMS(Cart)=  0.00052842 RMS(Int)=  0.00000009
 Iteration  2 RMS(Cart)=  0.00000009 RMS(Int)=  0.00000007
 ITry= 1 IFail=0 DXMaxC= 1.38D-03 DCOld= 1.00D+10 DXMaxT= 5.05D-01 DXLimC= 3.00D+00 Rises=F
 ClnCor:  largest displacement from symmetrization is 3.44D-12 for atom     7.
 Variable       Old X    -DE/DX   Delta X   Delta X   Delta X     New X
                                 (Linear)    (Quad)   (Total)
    R1        3.84333  -0.00004  -0.00102   0.00013  -0.00089   3.84244
    R2        3.34034  -0.00010  -0.00036   0.00003  -0.00033   3.34001
    R3        3.34034  -0.00010  -0.00036   0.00003  -0.00033   3.34001
    R4        2.79534   0.00003   0.00005   0.00008   0.00013   2.79547
    R5        2.79534   0.00003   0.00005   0.00008   0.00013   2.79547
    R6        2.80426   0.00002   0.00008   0.00005   0.00013   2.80439
    R7        2.79534   0.00003   0.00005   0.00008   0.00013   2.79547
    R8        2.79534   0.00003   0.00005   0.00008   0.00013   2.79547
    R9        2.80426   0.00002   0.00008   0.00005   0.00013   2.80439
    A1        2.09959   0.00005   0.00023   0.00009   0.00032   2.09991
    A2        2.09959   0.00005   0.00023   0.00009   0.00032   2.09991
    A3        2.08401  -0.00009  -0.00046  -0.00018  -0.00064   2.08337
    A4        1.85745   0.00000   0.00001  -0.00001  -0.00001   1.85744
    A5        1.85745   0.00000   0.00001  -0.00001  -0.00001   1.85744
    A6        1.78810  -0.00002  -0.00006  -0.00000  -0.00006   1.78804
    A7        1.97732  -0.00000  -0.00002  -0.00004  -0.00006   1.97725
    A8        1.98176   0.00001   0.00003   0.00003   0.00006   1.98182
    A9        1.98176   0.00001   0.00003   0.00003   0.00006   1.98182
   A10        1.85745   0.00000   0.00001  -0.00001  -0.00001   1.85744
   A11        1.85745   0.00000   0.00001  -0.00001  -0.00001   1.85744
   A12        1.78810  -0.00002  -0.00006  -0.00000  -0.00006   1.78804
   A13        1.97732  -0.00000  -0.00002  -0.00004  -0.00006   1.97725
   A14        1.98176   0.00001   0.00003   0.00003   0.00006   1.98182
   A15        1.98176   0.00001   0.00003   0.00003   0.00006   1.98182
    D1       -2.08472  -0.00000  -0.00001  -0.00003  -0.00004  -2.08476
    D2        2.08472   0.00000   0.00001   0.00003   0.00004   2.08476
    D3       -0.00000  -0.00000   0.00000  -0.00000   0.00000   0.00000
    D4        1.05687  -0.00000  -0.00001  -0.00003  -0.00004   1.05683
    D5       -1.05687   0.00000   0.00001   0.00003   0.00004  -1.05683
    D6        3.14159   0.00000   0.00000   0.00000   0.00000   3.14159
    D7        2.08472   0.00000   0.00001   0.00003   0.00004   2.08476
    D8       -2.08472  -0.00000  -0.00001  -0.00003  -0.00004  -2.08476
    D9       -0.00000  -0.00000   0.00000  -0.00000   0.00000   0.00000
   D10       -1.05687   0.00000   0.00001   0.00003   0.00004  -1.05683
   D11        1.05687  -0.00000  -0.00001  -0.00003  -0.00004   1.05683
   D12        3.14159  -0.00000   0.00000  -0.00000   0.00000   3.14159
         Item               Value     Threshold  Converged?
 Maximum Force            0.000103     0.000450     YES
 RMS     Force            0.000034     0.000300     YES
 Maximum Displacement     0.001381     0.001800     YES
 RMS     Displacement     0.000528     0.001200     YES
 Predicted change in Energy=-1.117842D-07
 Optimization completed.
    -- Stationary point found.
                           ----------------------------
                           !   Optimized Parameters   !
                           ! (Angstroms and Degrees)  !
 --------------------------                            --------------------------
 ! Name  Definition              Value          Derivative Info.                !
 --------------------------------------------------------------------------------
 ! R1    R(1,2)                  2.0338         -DE/DX =    0.0                 !
 ! R2    R(2,3)                  1.7676         -DE/DX =   -0.0001              !
 ! R3    R(2,4)                  1.7676         -DE/DX =   -0.0001              !
 ! R4    R(3,5)                  1.4792         -DE/DX =    0.0                 !
 ! R5    R(3,6)                  1.4792         -DE/DX =    0.0                 !
 ! R6    R(3,7)                  1.484          -DE/DX =    0.0                 !
 ! R7    R(4,8)                  1.4792         -DE/DX =    0.0                 !
 ! R8    R(4,9)                  1.4792         -DE/DX =    0.0                 !
 ! R9    R(4,10)                 1.484          -DE/DX =    0.0                 !
 ! A1    A(1,2,3)              120.2974         -DE/DX =    0.0                 !
 ! A2    A(1,2,4)              120.2974         -DE/DX =    0.0                 !
 ! A3    A(3,2,4)              119.4052         -DE/DX =   -0.0001              !
 ! A4    A(2,3,5)              106.424          -DE/DX =    0.0                 !
 ! A5    A(2,3,6)              106.424          -DE/DX =    0.0                 !
 ! A6    A(2,3,7)              102.4504         -DE/DX =    0.0                 !
 ! A7    A(5,3,6)              113.292          -DE/DX =    0.0                 !
 ! A8    A(5,3,7)              113.5463         -DE/DX =    0.0                 !
 ! A9    A(6,3,7)              113.5463         -DE/DX =    0.0                 !
 ! A10   A(2,4,8)              106.424          -DE/DX =    0.0                 !
 ! A11   A(2,4,9)              106.424          -DE/DX =    0.0                 !
 ! A12   A(2,4,10)             102.4504         -DE/DX =    0.0                 !
 ! A13   A(8,4,9)              113.292          -DE/DX =    0.0                 !
 ! A14   A(8,4,10)             113.5463         -DE/DX =    0.0                 !
 ! A15   A(9,4,10)             113.5463         -DE/DX =    0.0                 !
 ! D1    D(1,2,3,5)           -119.4455         -DE/DX =    0.0                 !
 ! D2    D(1,2,3,6)            119.4455         -DE/DX =    0.0                 !
 ! D3    D(1,2,3,7)              0.0            -DE/DX =    0.0                 !
 ! D4    D(4,2,3,5)             60.5545         -DE/DX =    0.0                 !
 ! D5    D(4,2,3,6)            -60.5545         -DE/DX =    0.0                 !
 ! D6    D(4,2,3,7)            180.0            -DE/DX =    0.0                 !
 ! D7    D(1,2,4,8)            119.4455         -DE/DX =    0.0                 !
 ! D8    D(1,2,4,9)           -119.4455         -DE/DX =    0.0                 !
 ! D9    D(1,2,4,10)             0.0            -DE/DX =    0.0                 !
 ! D10   D(3,2,4,8)            -60.5545         -DE/DX =    0.0                 !
 ! D11   D(3,2,4,9)             60.5545         -DE/DX =    0.0                 !
 ! D12   D(3,2,4,10)           180.0            -DE/DX =    0.0                 !
 --------------------------------------------------------------------------------
 Lowest energy point so far.  Saving SCF results.
 Largest change from initial coordinates is atom    7       0.077 Angstoms.
 GradGradGradGradGradGradGradGradGradGradGradGradGradGradGradGradGradGrad

 Leave Link  103 at Wed Jun 24 00:00:53 2026, MaxMem=  1879048192 cpu:               0.0 elap:               0.0
 (Enter /CH/g16/l202.exe)
                          Input orientation:                          
 ---------------------------------------------------------------------
 Center     Atomic      Atomic             Coordinates (Angstroms)
 Number     Number       Type             X           Y           Z
 ---------------------------------------------------------------------
      1         12           0        0.000000   -0.000000   -2.084172
      2          8           0        0.000000   -0.000000   -0.050369
      3         14           0       -0.000000    1.526205    0.841380
      4         14           0        0.000000   -1.526205    0.841380
      5          1           0        1.235588    1.535438    1.654625
      6          1           0       -1.235588    1.535438    1.654625
      7          1           0       -0.000000    2.533469   -0.248358
      8          1           0        1.235588   -1.535438    1.654625
      9          1           0       -1.235588   -1.535438    1.654625
     10          1           0        0.000000   -2.533469   -0.248358
 ---------------------------------------------------------------------
                    Distance matrix (angstroms):
                    1          2          3          4          5
     1  Mg   0.000000
     2  O    2.033803   0.000000
     3  Si   3.299721   1.767631   0.000000
     4  Si   3.299721   1.767631   3.052410   0.000000
     5  H    4.226446   2.606002   1.479233   3.400250   0.000000
     6  H    4.226446   2.606002   1.479233   3.400250   2.471176
     7  H    3.128686   2.541194   1.483951   4.203390   2.478727
     8  H    4.226446   2.606002   3.400250   1.479233   3.070876
     9  H    4.226446   2.606002   3.400250   1.479233   3.941699
    10  H    3.128686   2.541194   4.203390   1.483951   4.658758
                    6          7          8          9         10
     6  H    0.000000
     7  H    2.478727   0.000000
     8  H    3.941699   4.658758   0.000000
     9  H    3.070876   4.658758   2.471176   0.000000
    10  H    4.658758   5.066938   2.478727   2.478727   0.000000
 Stoichiometry    H6MgOSi2(2+)
 Framework group  C2V[C2(OMg),SGV(H2Si2),X(H4)]
 Deg. of freedom     8
 Full point group                 C2V     NOp   4
 RotChk:  IX=0 Diff= 8.29D-16
 Largest Abelian subgroup         C2V     NOp   4
 Largest concise Abelian subgroup C2V     NOp   4
                         Standard orientation:                         
 ---------------------------------------------------------------------
 Center     Atomic      Atomic             Coordinates (Angstroms)
 Number     Number       Type             X           Y           Z
 ---------------------------------------------------------------------
      1         12           0        0.000000    0.000000    2.163198
      2          8           0        0.000000    0.000000    0.129395
      3         14           0       -0.000000    1.526205   -0.762354
      4         14           0       -0.000000   -1.526205   -0.762354
      5          1           0       -1.235588    1.535438   -1.575599
      6          1           0        1.235588    1.535438   -1.575599
      7          1           0       -0.000000    2.533469    0.327384
      8          1           0       -1.235588   -1.535438   -1.575599
      9          1           0        1.235588   -1.535438   -1.575599
     10          1           0       -0.000000   -2.533469    0.327384
 ---------------------------------------------------------------------
 Rotational constants (GHZ):           3.1798966           3.1371747           1.6423656
 Leave Link  202 at Wed Jun 24 00:00:53 2026, MaxMem=  1879048192 cpu:               0.0 elap:               0.0
 (Enter /CH/g16/l601.exe)
 Copying SCF densities to generalized density rwf, IOpCl= 0 IROHF=0.

 **********************************************************************

            Population analysis using the SCF Density.

 **********************************************************************

 Orbital symmetries:
       Occupied  (B2) (A1) (A1) (A1) (B2) (A1) (A1) (B2) (B2) (A1)
                 (B1) (A2) (A1) (B2) (B1) (A1) (A1) (B2) (A1) (A1)
                 (B2) (B1) (A1) (B2) (A2) (B1)
       Virtual   (A1) (A1) (B2) (B1) (A1) (B2) (A1) (A2) (B1) (A1)
                 (B2) (A1) (B2) (A1) (B2) (B1) (A2) (A1) (B1) (B2)
                 (A1) (B2) (A1) (A2) (B1) (B2) (A1) (A1) (B1) (A2)
                 (B2) (A1) (B2) (B1) (A1) (A2) (A1) (B2) (B2) (A1)
                 (B2) (B1) (A1) (A2) (B2) (B1) (B2) (A1) (A1) (B1)
                 (A2) (A2) (A1) (B1) (B2) (B2) (A1) (B1) (A2) (B2)
                 (A1) (A1) (B2) (B1) (B2) (A1) (A2) (B1) (A1) (A2)
                 (A1) (B2)
 The electronic state is 1-A1.
 Alpha  occ. eigenvalues --  -66.20708 -66.20707 -47.03486 -19.24265  -5.37216
 Alpha  occ. eigenvalues --   -5.37216  -3.73707  -3.73704  -3.73253  -3.73253
 Alpha  occ. eigenvalues --   -3.73200  -3.73199  -3.29570  -2.04300  -2.04258
 Alpha  occ. eigenvalues --   -2.04110  -1.06040  -0.64141  -0.59085  -0.51004
 Alpha  occ. eigenvalues --   -0.48819  -0.48036  -0.40552  -0.40542  -0.40243
 Alpha  occ. eigenvalues --   -0.38224
 Alpha virt. eigenvalues --   -0.14439  -0.06084  -0.03677  -0.02702  -0.01277
 Alpha virt. eigenvalues --    0.00848   0.01135   0.01212   0.04532   0.05202
 Alpha virt. eigenvalues --    0.05258   0.06531   0.07316   0.15707   0.17716
 Alpha virt. eigenvalues --    0.18329   0.18730   0.21461   0.21615   0.23656
 Alpha virt. eigenvalues --    0.26511   0.27623   0.28354   0.28852   0.29862
 Alpha virt. eigenvalues --    0.31869   0.33032   0.35850   0.37574   0.39471
 Alpha virt. eigenvalues --    0.43666   0.48986   0.49006   0.49492   0.50851
 Alpha virt. eigenvalues --    0.52534   0.53180   0.56299   0.60192   0.79308
 Alpha virt. eigenvalues --    0.79883   0.81180   0.83722   0.87205   0.87808
 Alpha virt. eigenvalues --    1.06176   1.20598   1.25559   1.28103   1.31448
 Alpha virt. eigenvalues --    1.31556   1.45135   1.51728   1.53386   1.56881
 Alpha virt. eigenvalues --    1.59067   1.62634   1.66176   1.67415   1.70937
 Alpha virt. eigenvalues --    1.72918   1.91075   1.93497   2.11801   2.14926
 Alpha virt. eigenvalues --    2.15107   2.15925   2.57610   2.58700   2.60121
 Alpha virt. eigenvalues --    2.86621   2.92810
          Condensed to atoms (all electrons):
               1          2          3          4          5          6
     1  Mg  10.114842   0.197888  -0.004480  -0.004480   0.001501   0.001501
     2  O    0.197888   8.204823   0.223545   0.223545  -0.012278  -0.012278
     3  Si  -0.004480   0.223545  11.953962  -0.013048   0.399730   0.399730
     4  Si  -0.004480   0.223545  -0.013048  11.953962  -0.003302  -0.003302
     5  H    0.001501  -0.012278   0.399730  -0.003302   0.671383  -0.017246
     6  H    0.001501  -0.012278   0.399730  -0.003302  -0.017246   0.671383
     7  H    0.003374  -0.012170   0.385493   0.003212  -0.012052  -0.012052
     8  H    0.001501  -0.012278  -0.003302   0.399730   0.002120  -0.000377
     9  H    0.001501  -0.012278  -0.003302   0.399730  -0.000377   0.002120
    10  H    0.003374  -0.012170   0.003212   0.385493  -0.000023  -0.000023
               7          8          9         10
     1  Mg   0.003374   0.001501   0.001501   0.003374
     2  O   -0.012170  -0.012278  -0.012278  -0.012170
     3  Si   0.385493  -0.003302  -0.003302   0.003212
     4  Si   0.003212   0.399730   0.399730   0.385493
     5  H   -0.012052   0.002120  -0.000377  -0.000023
     6  H   -0.012052  -0.000377   0.002120  -0.000023
     7  H    0.697375  -0.000023  -0.000023  -0.000024
     8  H   -0.000023   0.671383  -0.017246  -0.012052
     9  H   -0.000023  -0.017246   0.671383  -0.012052
    10  H   -0.000024  -0.012052  -0.012052   0.697375
 Mulliken charges:
               1
     1  Mg   1.683478
     2  O   -0.776348
     3  Si   0.658459
     4  Si   0.658459
     5  H   -0.029457
     6  H   -0.029457
     7  H   -0.053110
     8  H   -0.029457
     9  H   -0.029457
    10  H   -0.053110
 Sum of Mulliken charges =   2.00000
 Mulliken charges with hydrogens summed into heavy atoms:
               1
     1  Mg   1.683478
     2  O   -0.776348
     3  Si   0.546435
     4  Si   0.546435
 Electronic spatial extent (au):  <R**2>=            670.5530
 Charge=              2.0000 electrons
 Dipole moment (field-independent basis, Debye):
    X=              0.0000    Y=             -0.0000    Z=             15.7653  Tot=             15.7653
 Quadrupole moment (field-independent basis, Debye-Ang):
   XX=            -36.5979   YY=            -27.8432   ZZ=              9.3244
   XY=             -0.0000   XZ=              0.0000   YZ=              0.0000
 Traceless Quadrupole moment (field-independent basis, Debye-Ang):
   XX=            -18.2257   YY=             -9.4710   ZZ=             27.6967
   XY=             -0.0000   XZ=              0.0000   YZ=              0.0000
 Octapole moment (field-independent basis, Debye-Ang**2):
  XXX=              0.0000  YYY=             -0.0000  ZZZ=            141.9165  XYY=              0.0000
  XXY=              0.0000  XXZ=             16.5133  XZZ=             -0.0000  YZZ=              0.0000
  YYZ=              4.7886  XYZ=             -0.0000
 Hexadecapole moment (field-independent basis, Debye-Ang**3):
 XXXX=            -79.2022 YYYY=           -443.0575 ZZZZ=            -35.0251 XXXY=             -0.0000
 XXXZ=             -0.0000 YYYX=             -0.0000 YYYZ=             -0.0000 ZZZX=             -0.0000
 ZZZY=              0.0000 XXYY=            -94.8206 XXZZ=            -54.6840 YYZZ=           -110.1771
 XXYZ=              0.0000 YYXZ=             -0.0000 ZZXY=             -0.0000
 N-N= 2.444952315554D+02 E-N=-2.507773314326D+03  KE= 8.530876040287D+02
 Symmetry A1   KE= 4.982789714123D+02
 Symmetry A2   KE= 2.612369588770D+01
 Symmetry B1   KE= 4.565809651763D+01
 Symmetry B2   KE= 2.830268402111D+02
 No NMR shielding tensors so no spin-rotation constants.
 Leave Link  601 at Wed Jun 24 00:00:53 2026, MaxMem=  1879048192 cpu:               0.3 elap:               0.1
 (Enter /CH/g16/l9999.exe)
 Unable to Open any file for archive entry.
 1\1\GINC-NODE0-CHCLUSTER\FOpt\RB3LYP\def2SVP\H6Mg1O1Si2(2+)\LS\24-Jun-
 2026\0\\#p B3LYP/def2SVP EmpiricalDispersion=GD3BJ opt SCRF=(SMD,Solve
 nt=Tetrahydrofuran) int=ultrafine\\Mg_disiloxane\\2,1\Mg,0.,0.,-2.0841
 722358\O,0.,0.,-0.0503687497\Si,0.,1.5262051536,0.8413799393\Si,0.,-1.
 5262051536,0.8413799393\H,1.2355878867,1.5354378936,1.6546245266\H,-1.
 2355878867,1.5354378936,1.6546245266\H,0.,2.5334690064,-0.2483584998\H
 ,1.2355878867,-1.5354378936,1.6546245266\H,-1.2355878867,-1.5354378936
 ,1.6546245266\H,0.,-2.5334690064,-0.2483584998\\Version=ES64L-G16RevC.
 02\State=1-A1\HF=-857.4234154\RMSD=2.760e-09\RMSF=3.510e-05\Dipole=0.,
 0.,-6.2025363\Quadrupole=-13.5503466,-7.041438,20.5917846,0.,0.,0.\PG=
 C02V [C2(O1Mg1),SGV(H2Si2),X(H4)]\\@
 The archive entry for this job was punched.


 FOR THE NATURE OF THE CHEMICAL BOND
 IS THE PROBLEM AT THE HEART OF ALL CHEMISTRY.

                     -- BRYCE CRAWFORD, JR., 1953
 Job cpu time:       0 days  0 hours  1 minutes 15.9 seconds.
 Elapsed time:       0 days  0 hours  0 minutes 11.8 seconds.
 File lengths (MBytes):  RWF=     45 Int=      0 D2E=      0 Chk=      3 Scr=      1
 Normal termination of Gaussian 16 at Wed Jun 24 00:00:53 2026.
