 Entering Gaussian System, Link 0=/CH/g16/g16
 Initial command:
 /CH/g16/l1.exe "/tmp/g16_Mg_Me2O_2866645/Gau-2866663.inp" -scrdir="/tmp/g16_Mg_Me2O_2866645/"
 Default is to use a total of  96 processors:
                               96 via shared-memory
                                1 via Linda
 Entering Link 1 = /CH/g16/l1.exe PID=   2866669.
  
 Copyright (c) 1988-2021, Gaussian, Inc.  All Rights Reserved.
  
 This is part of the Gaussian(R) 16 program.  It is based on
 the Gaussian(R) 09 system (copyright 2009, Gaussian, Inc.),
 the Gaussian(R) 03 system (copyright 2003, Gaussian, Inc.),
 the Gaussian(R) 98 system (copyright 1998, Gaussian, Inc.),
 the Gaussian(R) 94 system (copyright 1995, Gaussian, Inc.),
 the Gaussian 92(TM) system (copyright 1992, Gaussian, Inc.),
 the Gaussian 90(TM) system (copyright 1990, Gaussian, Inc.),
 the Gaussian 88(TM) system (copyright 1988, Gaussian, Inc.),
 the Gaussian 86(TM) system (copyright 1986, Carnegie Mellon
 University), and the Gaussian 82(TM) system (copyright 1983,
 Carnegie Mellon University). Gaussian is a federally registered
 trademark of Gaussian, Inc.
  
 This software contains proprietary and confidential information,
 including trade secrets, belonging to Gaussian, Inc.
  
 This software is provided under written license and may be
 used, copied, transmitted, or stored only in accord with that
 written license.
  
 The following legend is applicable only to US Government
 contracts under FAR:
  
                    RESTRICTED RIGHTS LEGEND
  
 Use, reproduction and disclosure by the US Government is
 subject to restrictions as set forth in subparagraphs (a)
 and (c) of the Commercial Computer Software - Restricted
 Rights clause in FAR 52.227-19.
  
 Gaussian, Inc.
 340 Quinnipiac St., Bldg. 40, Wallingford CT 06492
  
  
 ---------------------------------------------------------------
 Warning -- This program may not be used in any manner that
 competes with the business of Gaussian, Inc. or will provide
 assistance to any competitor of Gaussian, Inc.  The licensee
 of this program is prohibited from giving any competitor of
 Gaussian, Inc. access to this program.  By using this program,
 the user acknowledges that Gaussian, Inc. is engaged in the
 business of creating and licensing software in the field of
 computational chemistry and represents and warrants to the
 licensee that it is not a competitor of Gaussian, Inc. and that
 it will not use this program in any manner prohibited above.
 ---------------------------------------------------------------
  

 Cite this work as:
 Gaussian 16, Revision C.02,
 M. J. Frisch, G. W. Trucks, H. B. Schlegel, G. E. Scuseria, 
 M. A. Robb, J. R. Cheeseman, G. Scalmani, V. Barone, 
 G. A. Petersson, H. Nakatsuji, X. Li, M. Caricato, A. V. Marenich, 
 J. Bloino, B. G. Janesko, R. Gomperts, B. Mennucci, H. P. Hratchian, 
 J. V. Ortiz, A. F. Izmaylov, J. L. Sonnenberg, D. Williams-Young, 
 F. Ding, F. Lipparini, F. Egidi, J. Goings, B. Peng, A. Petrone, 
 T. Henderson, D. Ranasinghe, V. G. Zakrzewski, J. Gao, N. Rega, 
 G. Zheng, W. Liang, M. Hada, M. Ehara, K. Toyota, R. Fukuda, 
 J. Hasegawa, M. Ishida, T. Nakajima, Y. Honda, O. Kitao, H. Nakai, 
 T. Vreven, K. Throssell, J. A. Montgomery, Jr., J. E. Peralta, 
 F. Ogliaro, M. J. Bearpark, J. J. Heyd, E. N. Brothers, K. N. Kudin, 
 V. N. Staroverov, T. A. Keith, R. Kobayashi, J. Normand, 
 K. Raghavachari, A. P. Rendell, J. C. Burant, S. S. Iyengar, 
 J. Tomasi, M. Cossi, J. M. Millam, M. Klene, C. Adamo, R. Cammi, 
 J. W. Ochterski, R. L. Martin, K. Morokuma, O. Farkas, 
 J. B. Foresman, and D. J. Fox, Gaussian, Inc., Wallingford CT, 2019.
 
 ******************************************
 Gaussian 16:  ES64L-G16RevC.02  7-Dec-2021
                24-Jun-2026 
 ******************************************
 %chk=Mg_Me2O.chk
 %nprocshared=8
 Will use up to    8 processors via shared memory.
 %mem=14GB
 ----------------------------------------------------------------------
 #p B3LYP/def2SVP EmpiricalDispersion=GD3BJ opt SCRF=(SMD,Solvent=Tetra
 hydrofuran) int=ultrafine
 ----------------------------------------------------------------------
 1/18=20,19=15,26=6,38=1/1,3;
 2/9=110,12=2,17=6,18=5,40=1/2;
 3/5=43,7=101,11=2,25=1,30=1,70=32201,71=1,72=20,74=-5,75=-5,124=41/1,2,3;
 4//1;
 5/5=2,38=5,53=20/2;
 6/7=2,8=2,9=2,10=2,28=1/1;
 7//1,2,3,16;
 1/18=20,19=15,26=6/3(2);
 2/9=110/2;
 99//99;
 2/9=110/2;
 3/5=43,7=101,11=2,25=1,30=1,70=32205,71=1,72=20,74=-5,75=-5,124=41/1,2,3;
 4/5=5,16=3,69=1/1;
 5/5=2,38=5,53=20/2;
 7//1,2,3,16;
 1/18=20,19=15,26=6/3(-5);
 2/9=110/2;
 6/7=2,8=2,9=2,10=2,19=2,28=1/1;
 99/9=1/99;
 Leave Link    1 at Wed Jun 24 00:00:40 2026, MaxMem=  1879048192 cpu:               4.1 elap:               0.1
 (Enter /CH/g16/l101.exe)
 -------
 Mg_Me2O
 -------
 Symbolic Z-matrix:
 Charge =  2 Multiplicity = 1
 Mg                    0.        0.       -2.05 
 O                     0.        0.        0. 
 C                     0.        1.2       0.65 
 C                     0.       -1.2       0.65 
 H                     0.89      1.25      1.28 
 H                    -0.89      1.25      1.28 
 H                     0.        2.03     -0.05 
 H                     0.89     -1.25      1.28 
 H                    -0.89     -1.25      1.28 
 H                     0.       -2.03     -0.05 
 
 ITRead=  0  0  0  0  0  0  0  0  0  0
 MicOpt= -1 -1 -1 -1 -1 -1 -1 -1 -1 -1
 NAtoms=     10 NQM=       10 NQMF=       0 NMMI=      0 NMMIF=      0
                NMic=       0 NMicF=      0.
                    Isotopes and Nuclear Properties:
 (Nuclear quadrupole moments (NQMom) in fm**2, nuclear magnetic moments (NMagM)
  in nuclear magnetons)

  Atom         1           2           3           4           5           6           7           8           9          10
 IAtWgt=          24          16          12          12           1           1           1           1           1           1
 AtmWgt=  23.9850450  15.9949146  12.0000000  12.0000000   1.0078250   1.0078250   1.0078250   1.0078250   1.0078250   1.0078250
 NucSpn=           0           0           0           0           1           1           1           1           1           1
 AtZEff=  -0.0000000  -0.0000000  -0.0000000  -0.0000000  -0.0000000  -0.0000000  -0.0000000  -0.0000000  -0.0000000  -0.0000000
 NQMom=    0.0000000   0.0000000   0.0000000   0.0000000   0.0000000   0.0000000   0.0000000   0.0000000   0.0000000   0.0000000
 NMagM=    0.0000000   0.0000000   0.0000000   0.0000000   2.7928460   2.7928460   2.7928460   2.7928460   2.7928460   2.7928460
 AtZNuc=  12.0000000   8.0000000   6.0000000   6.0000000   1.0000000   1.0000000   1.0000000   1.0000000   1.0000000   1.0000000
 Leave Link  101 at Wed Jun 24 00:00:41 2026, MaxMem=  1879048192 cpu:               0.4 elap:               0.4
 (Enter /CH/g16/l103.exe)

 GradGradGradGradGradGradGradGradGradGradGradGradGradGradGradGradGradGrad
 Berny optimization.
 Initialization pass.
                           ----------------------------
                           !    Initial Parameters    !
                           ! (Angstroms and Degrees)  !
 --------------------------                            --------------------------
 ! Name  Definition              Value          Derivative Info.                !
 --------------------------------------------------------------------------------
 ! R1    R(1,2)                  2.05           estimate D2E/DX2                !
 ! R2    R(2,3)                  1.3647         estimate D2E/DX2                !
 ! R3    R(2,4)                  1.3647         estimate D2E/DX2                !
 ! R4    R(3,5)                  1.0916         estimate D2E/DX2                !
 ! R5    R(3,6)                  1.0916         estimate D2E/DX2                !
 ! R6    R(3,7)                  1.0858         estimate D2E/DX2                !
 ! R7    R(4,8)                  1.0916         estimate D2E/DX2                !
 ! R8    R(4,9)                  1.0916         estimate D2E/DX2                !
 ! R9    R(4,10)                 1.0858         estimate D2E/DX2                !
 ! A1    A(1,2,3)              118.4429         estimate D2E/DX2                !
 ! A2    A(1,2,4)              118.4429         estimate D2E/DX2                !
 ! A3    A(3,2,4)              123.1141         estimate D2E/DX2                !
 ! A4    A(2,3,5)              108.3709         estimate D2E/DX2                !
 ! A5    A(2,3,6)              108.3709         estimate D2E/DX2                !
 ! A6    A(2,3,7)              111.4137         estimate D2E/DX2                !
 ! A7    A(5,3,6)              109.2436         estimate D2E/DX2                !
 ! A8    A(5,3,7)              109.699          estimate D2E/DX2                !
 ! A9    A(6,3,7)              109.699          estimate D2E/DX2                !
 ! A10   A(2,4,8)              108.3709         estimate D2E/DX2                !
 ! A11   A(2,4,9)              108.3709         estimate D2E/DX2                !
 ! A12   A(2,4,10)             111.4137         estimate D2E/DX2                !
 ! A13   A(8,4,9)              109.2436         estimate D2E/DX2                !
 ! A14   A(8,4,10)             109.699          estimate D2E/DX2                !
 ! A15   A(9,4,10)             109.699          estimate D2E/DX2                !
 ! D1    D(1,2,3,5)           -120.7807         estimate D2E/DX2                !
 ! D2    D(1,2,3,6)            120.7807         estimate D2E/DX2                !
 ! D3    D(1,2,3,7)              0.0            estimate D2E/DX2                !
 ! D4    D(4,2,3,5)             59.2193         estimate D2E/DX2                !
 ! D5    D(4,2,3,6)            -59.2193         estimate D2E/DX2                !
 ! D6    D(4,2,3,7)            180.0            estimate D2E/DX2                !
 ! D7    D(1,2,4,8)            120.7807         estimate D2E/DX2                !
 ! D8    D(1,2,4,9)           -120.7807         estimate D2E/DX2                !
 ! D9    D(1,2,4,10)             0.0            estimate D2E/DX2                !
 ! D10   D(3,2,4,8)            -59.2193         estimate D2E/DX2                !
 ! D11   D(3,2,4,9)             59.2193         estimate D2E/DX2                !
 ! D12   D(3,2,4,10)           180.0            estimate D2E/DX2                !
 --------------------------------------------------------------------------------
 Trust Radius=3.00D-01 FncErr=5.00D-06 GrdErr=5.00D-06 EigMax=2.50D+02 EigMin=1.00D-04
 Number of steps in this run=     46 maximum allowed number of steps=    100.
 GradGradGradGradGradGradGradGradGradGradGradGradGradGradGradGradGradGrad

 Leave Link  103 at Wed Jun 24 00:00:41 2026, MaxMem=  1879048192 cpu:               0.0 elap:               0.0
 (Enter /CH/g16/l202.exe)
                          Input orientation:                          
 ---------------------------------------------------------------------
 Center     Atomic      Atomic             Coordinates (Angstroms)
 Number     Number       Type             X           Y           Z
 ---------------------------------------------------------------------
      1         12           0        0.000000    0.000000   -2.050000
      2          8           0        0.000000    0.000000    0.000000
      3          6           0        0.000000    1.200000    0.650000
      4          6           0        0.000000   -1.200000    0.650000
      5          1           0        0.890000    1.250000    1.280000
      6          1           0       -0.890000    1.250000    1.280000
      7          1           0        0.000000    2.030000   -0.050000
      8          1           0        0.890000   -1.250000    1.280000
      9          1           0       -0.890000   -1.250000    1.280000
     10          1           0        0.000000   -2.030000   -0.050000
 ---------------------------------------------------------------------
                    Distance matrix (angstroms):
                    1          2          3          4          5
     1  Mg   0.000000
     2  O    2.050000   0.000000
     3  C    2.954657   1.364734   0.000000
     4  C    2.954657   1.364734   2.400000   0.000000
     5  H    3.666538   1.998249   1.091559   2.681697   0.000000
     6  H    3.666538   1.998249   1.091559   2.681697   1.780000
     7  H    2.849719   2.030616   1.085772   3.304981   1.780281
     8  H    3.666538   1.998249   2.681697   1.091559   2.500000
     9  H    3.666538   1.998249   2.681697   1.091559   3.068941
    10  H    2.849719   2.030616   3.304981   1.085772   3.649575
                    6          7          8          9         10
     6  H    0.000000
     7  H    1.780281   0.000000
     8  H    3.068941   3.649575   0.000000
     9  H    2.500000   3.649575   1.780000   0.000000
    10  H    3.649575   4.060000   1.780281   1.780281   0.000000
 Stoichiometry    C2H6MgO(2+)
 Framework group  C2V[C2(OMg),SGV(C2H2),X(H4)]
 Deg. of freedom     8
 Full point group                 C2V     NOp   4
 Largest Abelian subgroup         C2V     NOp   4
 Largest concise Abelian subgroup C2V     NOp   4
                         Standard orientation:                         
 ---------------------------------------------------------------------
 Center     Atomic      Atomic             Coordinates (Angstroms)
 Number     Number       Type             X           Y           Z
 ---------------------------------------------------------------------
      1         12           0        0.000000    0.000000    1.740000
      2          8           0        0.000000   -0.000000   -0.310000
      3          6           0       -0.000000    1.200000   -0.960000
      4          6           0       -0.000000   -1.200000   -0.960000
      5          1           0       -0.890000    1.250000   -1.590000
      6          1           0        0.890000    1.250000   -1.590000
      7          1           0       -0.000000    2.030000   -0.260000
      8          1           0       -0.890000   -1.250000   -1.590000
      9          1           0        0.890000   -1.250000   -1.590000
     10          1           0       -0.000000   -2.030000   -0.260000
 ---------------------------------------------------------------------
 Rotational constants (GHZ):           9.6523020           4.6308558           3.2583032
 Leave Link  202 at Wed Jun 24 00:00:41 2026, MaxMem=  1879048192 cpu:               0.0 elap:               0.0
 (Enter /CH/g16/l301.exe)
 Standard basis: def2SVP (5D, 7F)
 Ernie: Thresh=  0.10000D-02 Tol=  0.10000D-05 Strict=F.
 There are    38 symmetry adapted cartesian basis functions of A1  symmetry.
 There are    12 symmetry adapted cartesian basis functions of A2  symmetry.
 There are    17 symmetry adapted cartesian basis functions of B1  symmetry.
 There are    27 symmetry adapted cartesian basis functions of B2  symmetry.
 There are    35 symmetry adapted basis functions of A1  symmetry.
 There are    12 symmetry adapted basis functions of A2  symmetry.
 There are    17 symmetry adapted basis functions of B1  symmetry.
 There are    26 symmetry adapted basis functions of B2  symmetry.
    90 basis functions,   154 primitive gaussians,    94 cartesian basis functions
    18 alpha electrons       18 beta electrons
       nuclear repulsion energy       147.1640441856 Hartrees.
 IExCor=  402 DFT=T Ex+Corr=B3LYP ExCW=0 ScaHFX=  0.200000
 ScaDFX=  0.800000  0.720000  1.000000  0.810000 ScalE2=  1.000000  1.000000
 IRadAn=      5 IRanWt=     -1 IRanGd=            0 ICorTp=0 IEmpDi=141
 NAtoms=   10 NActive=   10 NUniq=    5 SFac= 4.00D+00 NAtFMM=   60 NAOKFM=F Big=F
 Integral buffers will be    131072 words long.
 Raffenetti 2 integral format.
 Two-electron integral symmetry is turned on.
 R6Disp:  Grimme-D3(BJ) Dispersion energy=       -0.0127884323 Hartrees.
 Nuclear repulsion after empirical dispersion term =      147.1512557533 Hartrees.
 ------------------------------------------------------------------------------
 Polarizable Continuum Model (PCM)
 =================================
 Model                : PCM.
 Atomic radii         : SMD-Coulomb.
 Polarization charges : Total charges.
 Charge compensation  : None.
 Solution method      : On-the-fly selection.
 Cavity type          : VdW (van der Waals Surface) (Alpha=1.000).
 Cavity algorithm     : GePol (No added spheres)
                        Default sphere list used, NSphG=   10.
                        Lebedev-Laikov grids with approx.  5.0 points / Ang**2.
                        Smoothing algorithm: York/Karplus (Gamma=1.0000).
                        Polarization charges: spherical gaussians, with
                                              point-specific exponents (IZeta= 3).
                        Self-potential: point-specific (ISelfS= 7).
                        Self-field    : sphere-specific E.n sum rule (ISelfD= 2).
 1st derivatives      : Analytical E(r).r(x)/FMM algorithm (CHGder, D1EAlg=3).
                        Cavity 1st derivative terms included.
 Solvent              : TetraHydroFuran, Eps=   7.425700 Eps(inf)=   1.974025
 ------------------------------------------------------------------------------
 Spheres list:
 ISph  on   Nord     Re0    Alpha      Xe            Ye            Ze
    1  Mg      1    1.7300  1.000      0.000000      0.000000      1.740000
    2   O      2    2.2940  1.000      0.000000     -0.000000     -0.310000
    3   C      3    1.8500  1.000     -0.000000      1.200000     -0.960000
    4   C      4    1.8500  1.000     -0.000000     -1.200000     -0.960000
    5   H      5    1.2000  1.000     -0.890000      1.250000     -1.590000
    6   H      6    1.2000  1.000      0.890000      1.250000     -1.590000
    7   H      7    1.2000  1.000     -0.000000      2.030000     -0.260000
    8   H      8    1.2000  1.000     -0.890000     -1.250000     -1.590000
    9   H      9    1.2000  1.000      0.890000     -1.250000     -1.590000
   10   H     10    1.2000  1.000     -0.000000     -2.030000     -0.260000
 ------------------------------------------------------------------------------
 GePol: Number of generator spheres                  =      10
 GePol: Total number of spheres                      =      10
 GePol: Number of exposed spheres                    =      10 (100.00%)
 GePol: Number of points                             =     834
 GePol: Average weight of points                     =       0.12
 GePol: Minimum weight of points                     =   0.29D-05
 GePol: Maximum weight of points                     =    0.21501
 GePol: Number of points with low weight             =      42
 GePol: Fraction of low-weight points (<1% of avg)   =       5.04%
 GePol: Cavity surface area                          =    103.967 Ang**2
 GePol: Cavity volume                                =     84.461 Ang**3
 ------------------------------------------------------------------------------
 Atomic radii for non-electrostatic terms: SMD-CDS.
 ------------------------------------------------------------------------------
 PCM non-electrostatic energy =         0.0021959885 Hartrees.
 Nuclear repulsion after PCM non-electrostatic terms =      147.1534517418 Hartrees.
 Leave Link  301 at Wed Jun 24 00:00:41 2026, MaxMem=  1879048192 cpu:               0.1 elap:               0.0
 (Enter /CH/g16/l302.exe)
 NPDir=0 NMtPBC=     1 NCelOv=     1 NCel=       1 NClECP=     1 NCelD=      1
         NCelK=      1 NCelE2=     1 NClLst=     1 CellRange=     0.0.
 One-electron integrals computed using PRISM.
 One-electron integral symmetry used in STVInt
   4 Symmetry operations used in ECPInt.
 ECPInt:  NShTT=     990 NPrTT=    3650 LenC2=     988 LenP2D=    3145.
 LDataN:  DoStor=T MaxTD1= 4 Len=   56
 NBasis=    90 RedAO= T EigKep=  8.83D-03  NBF=    35    12    17    26
 NBsUse=    90 1.00D-06 EigRej= -1.00D+00 NBFU=    35    12    17    26
 Precomputing XC quadrature grid using
 IXCGrd= 4 IRadAn=           5 IRanWt=          -1 IRanGd=           0 AccXCQ= 0.00D+00.
 Generated NRdTot=       0 NPtTot=           0 NUsed=           0 NTot=          32
 NSgBfM=    94    94    94    94    94 MxSgAt=    10 MxSgA2=    10.
 Leave Link  302 at Wed Jun 24 00:00:41 2026, MaxMem=  1879048192 cpu:               0.3 elap:               0.1
 (Enter /CH/g16/l303.exe)
 DipDrv:  MaxL=1.
 Leave Link  303 at Wed Jun 24 00:00:41 2026, MaxMem=  1879048192 cpu:               0.0 elap:               0.0
 (Enter /CH/g16/l401.exe)
 ExpMin= 3.36D-02 ExpMax= 4.95D+03 ExpMxC= 7.45D+02 IAcc=3 IRadAn=         5 AccDes= 0.00D+00
 Harris functional with IExCor=  402 and IRadAn=       5 diagonalized for initial guess.
 HarFok:  IExCor=  402 AccDes= 0.00D+00 IRadAn=         5 IDoV= 1 UseB2=F ITyADJ=14
 ICtDFT=  3500011 ScaDFX=  1.000000  1.000000  1.000000  1.000000
 FoFCou: FMM=F IPFlag=           0 FMFlag=      100000 FMFlg1=           0
         NFxFlg=           0 DoJE=T BraDBF=F KetDBF=T FulRan=T
         wScrn=  0.000000 ICntrl=       500 IOpCl=  0 I1Cent=   200000004 NGrid=           0
         NMat0=    1 NMatS0=      1 NMatT0=    0 NMatD0=    1 NMtDS0=    0 NMtDT0=    0
 Petite list used in FoFCou.
 Harris En= -354.599472911165    
 JPrj=0 DoOrth=F DoCkMO=F.
 Initial guess orbital symmetries:
       Occupied  (A1) (A1) (B2) (A1) (A1) (A1) (B2) (B1) (A1) (B2)
                 (A1) (B2) (A1) (B1) (A2) (B2) (A1) (B1)
       Virtual   (A1) (B2) (B1) (A1) (A1) (A1) (B1) (B2) (A2) (A1)
                 (A1) (B2) (B2) (A2) (B1) (A1) (B2) (B1) (A1) (B2)
                 (A1) (A1) (A2) (A1) (B2) (B1) (B2) (B1) (A1) (B2)
                 (A2) (A1) (B2) (A1) (B2) (B1) (A1) (A2) (B2) (A1)
                 (B1) (B2) (B1) (A2) (A1) (A2) (B1) (A1) (B2) (B2)
                 (A1) (A2) (A1) (B1) (B2) (B2) (A1) (B1) (A2) (A1)
                 (B2) (A1) (A1) (B2) (A2) (B1) (B2) (B1) (A1) (A2)
                 (A1) (B2)
 The electronic state of the initial guess is 1-A1.
 Leave Link  401 at Wed Jun 24 00:00:41 2026, MaxMem=  1879048192 cpu:               0.5 elap:               0.1
 (Enter /CH/g16/l502.exe)
 Keep R1 ints in memory in symmetry-blocked form, NReq=15746530.
 FoFCou: FMM=F IPFlag=           0 FMFlag=           0 FMFlg1=           0
         NFxFlg=           0 DoJE=F BraDBF=F KetDBF=F FulRan=T
         wScrn=  0.000000 ICntrl=       600 IOpCl=  0 I1Cent=           0 NGrid=           0
         NMat0=    1 NMatS0=   4095 NMatT0=    0 NMatD0=    1 NMtDS0=    0 NMtDT0=    0
 Petite list used in FoFCou.
 Closed shell SCF:
 Using DIIS extrapolation, IDIIS=  1040.
 NGot=  1879048192 LenX=  1876877552 LenY=  1876868275
 Requested convergence on RMS density matrix=1.00D-08 within 128 cycles.
 Requested convergence on MAX density matrix=1.00D-06.
 Requested convergence on             energy=1.00D-06.
 No special actions if energy rises.

 Cycle   1  Pass 1  IDiag  1:
 Inv3:  Mode=1 IEnd=     2086668.
 Iteration    1 A*A^-1 deviation from unit magnitude is 3.55D-15 for    200.
 Iteration    1 A*A^-1 deviation from orthogonality  is 1.55D-15 for    651    299.
 Iteration    1 A^-1*A deviation from unit magnitude is 3.55D-15 for    200.
 Iteration    1 A^-1*A deviation from orthogonality  is 2.53D-15 for    785    204.
 E= -354.587603253664    
 DIIS: error= 2.25D-02 at cycle   1 NSaved=   1.
 NSaved= 1 IEnMin= 1 EnMin= -354.587603253664     IErMin= 1 ErrMin= 2.25D-02
 ErrMax= 2.25D-02  0.00D+00 EMaxC= 1.00D-01 BMatC= 6.64D-02 BMatP= 6.64D-02
 IDIUse=3 WtCom= 7.75D-01 WtEn= 2.25D-01
 Coeff-Com:  0.100D+01
 Coeff-En:   0.100D+01
 Coeff:      0.100D+01
 Gap=     0.139 Goal=   None    Shift=    0.000
 GapD=    0.139 DampG=1.000 DampE=0.500 DampFc=0.5000 IDamp=-1.
 Damping current iteration by 5.00D-01
 RMSDP=5.20D-03 MaxDP=9.52D-02              OVMax= 1.25D-01

 Cycle   2  Pass 1  IDiag  1:
 E= -354.619418718985     Delta-E=       -0.031815465320 Rises=F Damp=T
 DIIS: error= 8.66D-03 at cycle   2 NSaved=   2.
 NSaved= 2 IEnMin= 2 EnMin= -354.619418718985     IErMin= 2 ErrMin= 8.66D-03
 ErrMax= 8.66D-03  0.00D+00 EMaxC= 1.00D-01 BMatC= 5.07D-03 BMatP= 6.64D-02
 IDIUse=3 WtCom= 9.13D-01 WtEn= 8.66D-02
 Coeff-Com: -0.186D-01 0.102D+01
 Coeff-En:   0.000D+00 0.100D+01
 Coeff:     -0.170D-01 0.102D+01
 Gap=     0.217 Goal=   None    Shift=    0.000
 RMSDP=1.43D-03 MaxDP=1.48D-02 DE=-3.18D-02 OVMax= 7.24D-02

 Cycle   3  Pass 1  IDiag  1:
 E= -354.652226374032     Delta-E=       -0.032807655048 Rises=F Damp=F
 DIIS: error= 6.67D-03 at cycle   3 NSaved=   3.
 NSaved= 3 IEnMin= 3 EnMin= -354.652226374032     IErMin= 3 ErrMin= 6.67D-03
 ErrMax= 6.67D-03  0.00D+00 EMaxC= 1.00D-01 BMatC= 3.83D-03 BMatP= 5.07D-03
 IDIUse=3 WtCom= 9.33D-01 WtEn= 6.67D-02
 Coeff-Com: -0.871D-01 0.499D+00 0.588D+00
 Coeff-En:   0.000D+00 0.000D+00 0.100D+01
 Coeff:     -0.813D-01 0.466D+00 0.615D+00
 Gap=     0.209 Goal=   None    Shift=    0.000
 RMSDP=5.80D-04 MaxDP=1.59D-02 DE=-3.28D-02 OVMax= 1.64D-02

 Cycle   4  Pass 1  IDiag  1:
 E= -354.654763441377     Delta-E=       -0.002537067344 Rises=F Damp=F
 DIIS: error= 2.53D-03 at cycle   4 NSaved=   4.
 NSaved= 4 IEnMin= 4 EnMin= -354.654763441377     IErMin= 4 ErrMin= 2.53D-03
 ErrMax= 2.53D-03  0.00D+00 EMaxC= 1.00D-01 BMatC= 6.01D-04 BMatP= 3.83D-03
 IDIUse=3 WtCom= 9.75D-01 WtEn= 2.53D-02
 Coeff-Com: -0.428D-01 0.181D+00 0.337D+00 0.525D+00
 Coeff-En:   0.000D+00 0.000D+00 0.672D-01 0.933D+00
 Coeff:     -0.417D-01 0.176D+00 0.330D+00 0.535D+00
 Gap=     0.210 Goal=   None    Shift=    0.000
 RMSDP=1.82D-04 MaxDP=4.71D-03 DE=-2.54D-03 OVMax= 4.45D-03

 Cycle   5  Pass 1  IDiag  1:
 E= -354.655198284341     Delta-E=       -0.000434842964 Rises=F Damp=F
 DIIS: error= 2.93D-04 at cycle   5 NSaved=   5.
 NSaved= 5 IEnMin= 5 EnMin= -354.655198284341     IErMin= 5 ErrMin= 2.93D-04
 ErrMax= 2.93D-04  0.00D+00 EMaxC= 1.00D-01 BMatC= 6.97D-06 BMatP= 6.01D-04
 IDIUse=3 WtCom= 9.97D-01 WtEn= 2.93D-03
 Coeff-Com: -0.403D-02 0.964D-02 0.290D-01 0.130D+00 0.836D+00
 Coeff-En:   0.000D+00 0.000D+00 0.000D+00 0.000D+00 0.100D+01
 Coeff:     -0.402D-02 0.961D-02 0.289D-01 0.129D+00 0.836D+00
 Gap=     0.210 Goal=   None    Shift=    0.000
 RMSDP=1.86D-05 MaxDP=4.62D-04 DE=-4.35D-04 OVMax= 4.19D-04

 Cycle   6  Pass 1  IDiag  1:
 E= -354.655203229882     Delta-E=       -0.000004945541 Rises=F Damp=F
 DIIS: error= 1.58D-05 at cycle   6 NSaved=   6.
 NSaved= 6 IEnMin= 6 EnMin= -354.655203229882     IErMin= 6 ErrMin= 1.58D-05
 ErrMax= 1.58D-05  0.00D+00 EMaxC= 1.00D-01 BMatC= 2.85D-08 BMatP= 6.97D-06
 IDIUse=1 WtCom= 1.00D+00 WtEn= 0.00D+00
 Coeff-Com: -0.344D-04-0.972D-03 0.117D-03 0.169D-01 0.153D+00 0.831D+00
 Coeff:     -0.344D-04-0.972D-03 0.117D-03 0.169D-01 0.153D+00 0.831D+00
 Gap=     0.210 Goal=   None    Shift=    0.000
 RMSDP=1.56D-06 MaxDP=2.16D-05 DE=-4.95D-06 OVMax= 3.00D-05

 Cycle   7  Pass 1  IDiag  1:
 E= -354.655203250718     Delta-E=       -0.000000020836 Rises=F Damp=F
 DIIS: error= 2.38D-06 at cycle   7 NSaved=   7.
 NSaved= 7 IEnMin= 7 EnMin= -354.655203250718     IErMin= 7 ErrMin= 2.38D-06
 ErrMax= 2.38D-06  0.00D+00 EMaxC= 1.00D-01 BMatC= 3.65D-10 BMatP= 2.85D-08
 IDIUse=1 WtCom= 1.00D+00 WtEn= 0.00D+00
 Coeff-Com:  0.508D-04-0.270D-03-0.279D-03 0.133D-02 0.158D-01 0.134D+00
 Coeff-Com:  0.850D+00
 Coeff:      0.508D-04-0.270D-03-0.279D-03 0.133D-02 0.158D-01 0.134D+00
 Coeff:      0.850D+00
 Gap=     0.210 Goal=   None    Shift=    0.000
 RMSDP=2.37D-07 MaxDP=2.59D-06 DE=-2.08D-08 OVMax= 5.97D-06

 Cycle   8  Pass 1  IDiag  1:
 E= -354.655203251054     Delta-E=       -0.000000000336 Rises=F Damp=F
 DIIS: error= 2.81D-07 at cycle   8 NSaved=   8.
 NSaved= 8 IEnMin= 8 EnMin= -354.655203251054     IErMin= 8 ErrMin= 2.81D-07
 ErrMax= 2.81D-07  0.00D+00 EMaxC= 1.00D-01 BMatC= 8.60D-12 BMatP= 3.65D-10
 IDIUse=1 WtCom= 1.00D+00 WtEn= 0.00D+00
 Coeff-Com:  0.116D-04-0.208D-04-0.455D-04-0.211D-03-0.114D-02-0.241D-02
 Coeff-Com:  0.116D+00 0.888D+00
 Coeff:      0.116D-04-0.208D-04-0.455D-04-0.211D-03-0.114D-02-0.241D-02
 Coeff:      0.116D+00 0.888D+00
 Gap=     0.210 Goal=   None    Shift=    0.000
 RMSDP=4.36D-08 MaxDP=4.85D-07 DE=-3.36D-10 OVMax= 1.28D-06

 Cycle   9  Pass 1  IDiag  1:
 E= -354.655203251065     Delta-E=       -0.000000000011 Rises=F Damp=F
 DIIS: error= 4.03D-08 at cycle   9 NSaved=   9.
 NSaved= 9 IEnMin= 9 EnMin= -354.655203251065     IErMin= 9 ErrMin= 4.03D-08
 ErrMax= 4.03D-08  0.00D+00 EMaxC= 1.00D-01 BMatC= 1.02D-13 BMatP= 8.60D-12
 IDIUse=1 WtCom= 1.00D+00 WtEn= 0.00D+00
 Coeff-Com: -0.964D-07 0.141D-05-0.391D-05-0.197D-04-0.177D-03-0.144D-02
 Coeff-Com: -0.524D-02 0.289D-01 0.978D+00
 Coeff:     -0.964D-07 0.141D-05-0.391D-05-0.197D-04-0.177D-03-0.144D-02
 Coeff:     -0.524D-02 0.289D-01 0.978D+00
 Gap=     0.210 Goal=   None    Shift=    0.000
 RMSDP=4.58D-09 MaxDP=6.91D-08 DE=-1.05D-11 OVMax= 1.28D-07

 Error on total polarization charges =  0.01894
 SCF Done:  E(RB3LYP) =  -354.655203251     A.U. after    9 cycles
            NFock=  9  Conv=0.46D-08     -V/T= 2.0081
 KE= 3.517910979899D+02 PE=-1.115683468464D+03 EE= 2.620837154809D+02
 SMD-CDS (non-electrostatic) energy       (kcal/mol) =       1.38
 (included in total energy above)
 Leave Link  502 at Wed Jun 24 00:00:42 2026, MaxMem=  1879048192 cpu:               6.4 elap:               1.0
 (Enter /CH/g16/l601.exe)
 Copying SCF densities to generalized density rwf, IOpCl= 0 IROHF=0.

 **********************************************************************

            Population analysis using the SCF Density.

 **********************************************************************

 Orbital symmetries:
       Occupied  (A1) (A1) (B2) (A1) (A1) (B2) (B1) (A1) (A1) (B2)
                 (A1) (A1) (B2) (B1) (B2) (A2) (A1) (B1)
       Virtual   (A1) (B2) (B1) (A1) (A1) (A1) (A1) (B1) (B2) (A1)
                 (A2) (B2) (A2) (B2) (B1) (B2) (A1) (B1) (A1) (B2)
                 (A1) (A1) (A2) (A1) (B1) (B2) (B2) (B1) (A1) (B2)
                 (A2) (A1) (B2) (A1) (B2) (B1) (A1) (A2) (B2) (A1)
                 (B1) (B2) (B1) (A2) (A1) (A2) (A1) (B1) (B2) (B2)
                 (A1) (A2) (A1) (B1) (B2) (B2) (A1) (B1) (A2) (A1)
                 (B2) (A1) (A1) (B2) (A2) (B1) (B2) (B1) (A2) (A1)
                 (A1) (B2)
 The electronic state is 1-A1.
 Alpha  occ. eigenvalues --  -47.03776 -19.25859 -10.28765 -10.28764  -3.29806
 Alpha  occ. eigenvalues --   -2.04537  -2.04487  -2.04356  -1.15636  -0.81814
 Alpha  occ. eigenvalues --   -0.69243  -0.58808  -0.56961  -0.56430  -0.45651
 Alpha  occ. eigenvalues --   -0.45490  -0.41592  -0.35086
 Alpha virt. eigenvalues --   -0.14107  -0.02586  -0.02357   0.00015   0.03396
 Alpha virt. eigenvalues --    0.06378   0.08387   0.09177   0.09471   0.11817
 Alpha virt. eigenvalues --    0.12228   0.12837   0.17087   0.17492   0.17730
 Alpha virt. eigenvalues --    0.20458   0.21723   0.22433   0.26425   0.27433
 Alpha virt. eigenvalues --    0.31224   0.38617   0.43860   0.48398   0.50502
 Alpha virt. eigenvalues --    0.51244   0.57920   0.59937   0.60525   0.61514
 Alpha virt. eigenvalues --    0.64507   0.64945   0.65556   0.72122   0.87665
 Alpha virt. eigenvalues --    0.90111   1.02528   1.11927   1.12734   1.32787
 Alpha virt. eigenvalues --    1.35891   1.39010   1.47534   1.47976   1.49478
 Alpha virt. eigenvalues --    1.64477   1.69504   1.69585   1.73938   1.78840
 Alpha virt. eigenvalues --    1.79598   1.81045   1.85942   1.90143   1.99617
 Alpha virt. eigenvalues --    2.14953   2.16037   2.23475   2.27478   2.34944
 Alpha virt. eigenvalues --    2.37513   2.61066   2.65592   2.67275   2.77653
 Alpha virt. eigenvalues --    2.79441   2.81964   2.84112   3.09039   3.09080
 Alpha virt. eigenvalues --    3.33938   3.37294
          Condensed to atoms (all electrons):
               1          2          3          4          5          6
     1  Mg  10.107409   0.210321  -0.017942  -0.017942   0.001775   0.001775
     2  O    0.210321   7.988016   0.232776   0.232776  -0.030513  -0.030513
     3  C   -0.017942   0.232776   4.398467  -0.015349   0.405129   0.405129
     4  C   -0.017942   0.232776  -0.015349   4.398467  -0.001482  -0.001482
     5  H    0.001775  -0.030513   0.405129  -0.001482   0.601555  -0.024732
     6  H    0.001775  -0.030513   0.405129  -0.001482  -0.024732   0.601555
     7  H    0.000065  -0.022319   0.403278   0.005119  -0.019201  -0.019201
     8  H    0.001775  -0.030513  -0.001482   0.405129   0.009774  -0.003527
     9  H    0.001775  -0.030513  -0.001482   0.405129  -0.003527   0.009774
    10  H    0.000065  -0.022319   0.005119   0.403278  -0.000162  -0.000162
               7          8          9         10
     1  Mg   0.000065   0.001775   0.001775   0.000065
     2  O   -0.022319  -0.030513  -0.030513  -0.022319
     3  C    0.403278  -0.001482  -0.001482   0.005119
     4  C    0.005119   0.405129   0.405129   0.403278
     5  H   -0.019201   0.009774  -0.003527  -0.000162
     6  H   -0.019201  -0.003527   0.009774  -0.000162
     7  H    0.568773  -0.000162  -0.000162  -0.000200
     8  H   -0.000162   0.601555  -0.024732  -0.019201
     9  H   -0.000162  -0.024732   0.601555  -0.019201
    10  H   -0.000200  -0.019201  -0.019201   0.568773
 Mulliken charges:
               1
     1  Mg   1.710925
     2  O   -0.497195
     3  C    0.186357
     4  C    0.186357
     5  H    0.061384
     6  H    0.061384
     7  H    0.084010
     8  H    0.061384
     9  H    0.061384
    10  H    0.084010
 Sum of Mulliken charges =   2.00000
 Mulliken charges with hydrogens summed into heavy atoms:
               1
     1  Mg   1.710925
     2  O   -0.497195
     3  C    0.393135
     4  C    0.393135
 Electronic spatial extent (au):  <R**2>=            353.5148
 Charge=              2.0000 electrons
 Dipole moment (field-independent basis, Debye):
    X=             -0.0000    Y=             -0.0000    Z=             12.9766  Tot=             12.9766
 Quadrupole moment (field-independent basis, Debye-Ang):
   XX=            -21.3508   YY=            -16.1964   ZZ=             10.4224
   XY=             -0.0000   XZ=             -0.0000   YZ=              0.0000
 Traceless Quadrupole moment (field-independent basis, Debye-Ang):
   XX=            -12.3092   YY=             -7.1548   ZZ=             19.4640
   XY=             -0.0000   XZ=             -0.0000   YZ=              0.0000
 Octapole moment (field-independent basis, Debye-Ang**2):
  XXX=              0.0000  YYY=              0.0000  ZZZ=             80.4059  XYY=              0.0000
  XXY=              0.0000  XXZ=              9.2980  XZZ=              0.0000  YZZ=              0.0000
  YYZ=              7.6154  XYZ=             -0.0000
 Hexadecapole moment (field-independent basis, Debye-Ang**3):
 XXXX=            -31.3941 YYYY=           -144.0141 ZZZZ=            -66.1440 XXXY=             -0.0000
 XXXZ=             -0.0000 YYYX=             -0.0000 YYYZ=              0.0000 ZZZX=             -0.0000
 ZZZY=              0.0000 XXYY=            -32.1295 XXZZ=            -27.9633 YYZZ=            -48.4807
 XXYZ=             -0.0000 YYXZ=             -0.0000 ZZXY=             -0.0000
 N-N= 1.471534517418D+02 E-N=-1.115683466307D+03  KE= 3.517910979899D+02
 Symmetry A1   KE= 2.714357058946D+02
 Symmetry A2   KE= 2.136420931239D+00
 Symmetry B1   KE= 2.210765564277D+01
 Symmetry B2   KE= 5.611131552128D+01
 No NMR shielding tensors so no spin-rotation constants.
 Leave Link  601 at Wed Jun 24 00:00:42 2026, MaxMem=  1879048192 cpu:               0.3 elap:               0.1
 (Enter /CH/g16/l701.exe)
 ... and contract with generalized density number  0.
 Compute integral first derivatives.
 R6Disp: Adding Grimme-D3(BJ) dispersion energy 1st derivatives to the gradient.
   4 Symmetry operations used in ECPInt.
 ECPInt:  NShTT=     990 NPrTT=    3650 LenC2=     988 LenP2D=    3145.
 LDataN:  DoStor=T MaxTD1= 5 Len=  102
 D1PCM: PCM CHGder 1st derivatives, ID1Alg=3 FixD1E=F DoIter=F DoCFld=F I1PDM=0.
 GePol: Maximum number of non-zero 1st derivatives   =     323
 Leave Link  701 at Wed Jun 24 00:00:42 2026, MaxMem=  1879048192 cpu:               1.6 elap:               0.2
 (Enter /CH/g16/l702.exe)
 L702 exits ... SP integral derivatives will be done elsewhere.
 Leave Link  702 at Wed Jun 24 00:00:42 2026, MaxMem=  1879048192 cpu:               0.0 elap:               0.0
 (Enter /CH/g16/l703.exe)
 Integral derivatives from FoFJK, PRISM(SPDF).
 Compute integral first derivatives, UseDBF=F ICtDFT=           0.
 Calling FoFJK, ICntrl=      2127 FMM=F ISym2X=1 I1Cent= 0 IOpClX= 0 NMat=1 NMatS=1 NMatT=0.
 FoFJK:  IHMeth= 1 ICntrl=    2127 DoSepK=F KAlg= 0 I1Cent=           0 FoldK=F
 IRaf=         0 NMat=       1 IRICut=       1 DoRegI=T DoRafI=F ISym2E= 1 IDoP0=0 IntGTp=1.
 FoFCou: FMM=F IPFlag=           0 FMFlag=      100000 FMFlg1=         800
         NFxFlg=           0 DoJE=F BraDBF=F KetDBF=F FulRan=T
         wScrn=  0.000000 ICntrl=      2127 IOpCl=  0 I1Cent=           0 NGrid=           0
         NMat0=    1 NMatS0=      1 NMatT0=    0 NMatD0=    1 NMtDS0=    0 NMtDT0=    0
 Petite list used in FoFCou.
 Leave Link  703 at Wed Jun 24 00:00:42 2026, MaxMem=  1879048192 cpu:               0.9 elap:               0.2
 (Enter /CH/g16/l716.exe)
 Dipole        =-2.57029412D-17 0.00000000D+00 5.10539228D+00
 ***** Axes restored to original set *****
 -------------------------------------------------------------------
 Center     Atomic                   Forces (Hartrees/Bohr)
 Number     Number              X              Y              Z
 -------------------------------------------------------------------
      1       12           0.000000000   -0.000000000    0.003684896
      2        8           0.000000000    0.000000000   -0.096005859
      3        6          -0.000000000    0.023544150    0.042341493
      4        6          -0.000000000   -0.023544150    0.042341493
      5        1           0.005638678    0.005854933    0.006021635
      6        1          -0.005638678    0.005854933    0.006021635
      7        1          -0.000000000    0.004972811   -0.008224283
      8        1           0.005638678   -0.005854933    0.006021635
      9        1          -0.005638678   -0.005854933    0.006021635
     10        1          -0.000000000   -0.004972811   -0.008224283
 -------------------------------------------------------------------
 Cartesian Forces:  Max     0.096005859 RMS     0.021999270
 Leave Link  716 at Wed Jun 24 00:00:43 2026, MaxMem=  1879048192 cpu:               0.0 elap:               0.0
 (Enter /CH/g16/l103.exe)

 GradGradGradGradGradGradGradGradGradGradGradGradGradGradGradGradGradGrad
 Berny optimization.
 FormGI is forming the generalized inverse of G from B-inverse, IUseBI=4.
 Internal  Forces:  Max     0.057356586 RMS     0.015294282
 Search for a local minimum.
 Step number   1 out of a maximum of   46
 All quantities printed in internal units (Hartrees-Bohrs-Radians)
 RMS Force = .15294D-01 SwitMx=.10000D-02 MixMth= 1
 Mixed Optimization -- RFO/linear search
 Second derivative matrix not updated -- first step.
 ITU=  0
     Eigenvalues ---    0.02158   0.02158   0.02158   0.08148   0.08148
     Eigenvalues ---    0.08490   0.08490   0.13328   0.16000   0.16000
     Eigenvalues ---    0.16000   0.16000   0.16000   0.16000   0.25000
     Eigenvalues ---    0.25000   0.34633   0.34633   0.34633   0.34633
     Eigenvalues ---    0.35306   0.35306   0.52002   0.52002
 RFO step:  Lambda=-1.97811530D-02 EMin= 2.15827658D-02
 Linear search not attempted -- first point.
 Iteration  1 RMS(Cart)=  0.04730367 RMS(Int)=  0.00132752
 Iteration  2 RMS(Cart)=  0.00241446 RMS(Int)=  0.00073637
 Iteration  3 RMS(Cart)=  0.00000251 RMS(Int)=  0.00073637
 Iteration  4 RMS(Cart)=  0.00000000 RMS(Int)=  0.00073637
 ITry= 1 IFail=0 DXMaxC= 1.30D-01 DCOld= 1.00D+10 DXMaxT= 3.00D-01 DXLimC= 3.00D+00 Rises=F
 ClnCor:  largest displacement from symmetrization is 8.84D-13 for atom     6.
 Variable       Old X    -DE/DX   Delta X   Delta X   Delta X     New X
                                 (Linear)    (Quad)   (Total)
    R1        3.87394  -0.00368   0.00000  -0.02407  -0.02407   3.84986
    R2        2.57897   0.05736   0.00000   0.10626   0.10626   2.68523
    R3        2.57897   0.05736   0.00000   0.10626   0.10626   2.68523
    R4        2.06275   0.00834   0.00000   0.02278   0.02278   2.08553
    R5        2.06275   0.00834   0.00000   0.02278   0.02278   2.08553
    R6        2.05181   0.00910   0.00000   0.02442   0.02442   2.07623
    R7        2.06275   0.00834   0.00000   0.02278   0.02278   2.08553
    R8        2.06275   0.00834   0.00000   0.02278   0.02278   2.08553
    R9        2.05181   0.00910   0.00000   0.02442   0.02442   2.07623
    A1        2.06722   0.01205   0.00000   0.04465   0.04465   2.11187
    A2        2.06722   0.01205   0.00000   0.04465   0.04465   2.11187
    A3        2.14875  -0.02409   0.00000  -0.08931  -0.08931   2.05944
    A4        1.89143   0.00849   0.00000   0.04962   0.04884   1.94027
    A5        1.89143   0.00849   0.00000   0.04962   0.04884   1.94027
    A6        1.94454  -0.00824   0.00000  -0.05077  -0.05021   1.89433
    A7        1.90666  -0.00472   0.00000  -0.01557  -0.01752   1.88914
    A8        1.91461  -0.00191   0.00000  -0.01561  -0.01506   1.89954
    A9        1.91461  -0.00191   0.00000  -0.01561  -0.01506   1.89954
   A10        1.89143   0.00849   0.00000   0.04962   0.04884   1.94027
   A11        1.89143   0.00849   0.00000   0.04962   0.04884   1.94027
   A12        1.94454  -0.00824   0.00000  -0.05077  -0.05021   1.89433
   A13        1.90666  -0.00472   0.00000  -0.01557  -0.01752   1.88914
   A14        1.91461  -0.00191   0.00000  -0.01561  -0.01506   1.89954
   A15        1.91461  -0.00191   0.00000  -0.01561  -0.01506   1.89954
    D1       -2.10802   0.00192   0.00000   0.01838   0.01936  -2.08866
    D2        2.10802  -0.00192   0.00000  -0.01838  -0.01936   2.08866
    D3        0.00000   0.00000   0.00000   0.00000  -0.00000   0.00000
    D4        1.03357   0.00192   0.00000   0.01838   0.01936   1.05294
    D5       -1.03357  -0.00192   0.00000  -0.01838  -0.01936  -1.05294
    D6        3.14159   0.00000   0.00000   0.00000   0.00000   3.14159
    D7        2.10802  -0.00192   0.00000  -0.01838  -0.01936   2.08866
    D8       -2.10802   0.00192   0.00000   0.01838   0.01936  -2.08866
    D9       -0.00000  -0.00000   0.00000  -0.00000   0.00000   0.00000
   D10       -1.03357  -0.00192   0.00000  -0.01838  -0.01936  -1.05294
   D11        1.03357   0.00192   0.00000   0.01838   0.01936   1.05294
   D12        3.14159  -0.00000   0.00000  -0.00000   0.00000   3.14159
         Item               Value     Threshold  Converged?
 Maximum Force            0.057357     0.000450     NO 
 RMS     Force            0.015294     0.000300     NO 
 Maximum Displacement     0.130317     0.001800     NO 
 RMS     Displacement     0.046179     0.001200     NO 
 Predicted change in Energy=-1.047893D-02
 Lowest energy point so far.  Saving SCF results.
 GradGradGradGradGradGradGradGradGradGradGradGradGradGradGradGradGradGrad

 Leave Link  103 at Wed Jun 24 00:00:43 2026, MaxMem=  1879048192 cpu:               0.0 elap:               0.0
 (Enter /CH/g16/l202.exe)
                          Input orientation:                          
 ---------------------------------------------------------------------
 Center     Atomic      Atomic             Coordinates (Angstroms)
 Number     Number       Type             X           Y           Z
 ---------------------------------------------------------------------
      1         12           0        0.000000   -0.000000   -2.106221
      2          8           0       -0.000000   -0.000000   -0.068961
      3          6           0       -0.000000    1.217984    0.662919
      4          6           0        0.000000   -1.217984    0.662919
      5          1           0        0.894199    1.297202    1.304868
      6          1           0       -0.894199    1.297202    1.304868
      7          1           0       -0.000000    2.053915   -0.050064
      8          1           0        0.894199   -1.297202    1.304868
      9          1           0       -0.894199   -1.297202    1.304868
     10          1           0        0.000000   -2.053915   -0.050064
 ---------------------------------------------------------------------
                    Distance matrix (angstroms):
                    1          2          3          4          5
     1  Mg   0.000000
     2  O    2.037260   0.000000
     3  C    3.025165   1.420962   0.000000
     4  C    3.025165   1.420962   2.435968   0.000000
     5  H    3.757373   2.090390   1.103615   2.745515   0.000000
     6  H    3.757373   2.090390   1.103615   2.745515   1.788398
     7  H    2.906261   2.054002   1.098692   3.348681   1.791101
     8  H    3.757373   2.090390   2.745515   1.103615   2.594405
     9  H    3.757373   2.090390   2.745515   1.103615   3.151080
    10  H    2.906261   2.054002   3.348681   1.098692   3.723630
                    6          7          8          9         10
     6  H    0.000000
     7  H    1.791101   0.000000
     8  H    3.151080   3.723630   0.000000
     9  H    2.594405   3.723630   1.788398   0.000000
    10  H    3.723630   4.107830   1.791101   1.791101   0.000000
 Stoichiometry    C2H6MgO(2+)
 Framework group  C2V[C2(OMg),SGV(C2H2),X(H4)]
 Deg. of freedom     8
 Full point group                 C2V     NOp   4
 RotChk:  IX=0 Diff= 1.59D-16
 Largest Abelian subgroup         C2V     NOp   4
 Largest concise Abelian subgroup C2V     NOp   4
                         Standard orientation:                         
 ---------------------------------------------------------------------
 Center     Atomic      Atomic             Coordinates (Angstroms)
 Number     Number       Type             X           Y           Z
 ---------------------------------------------------------------------
      1         12           0        0.000000   -0.000000    1.770643
      2          8           0        0.000000    0.000000   -0.266617
      3          6           0        0.000000    1.217984   -0.998497
      4          6           0       -0.000000   -1.217984   -0.998497
      5          1           0       -0.894199    1.297202   -1.640446
      6          1           0        0.894199    1.297202   -1.640446
      7          1           0        0.000000    2.053915   -0.285515
      8          1           0       -0.894199   -1.297202   -1.640446
      9          1           0        0.894199   -1.297202   -1.640446
     10          1           0       -0.000000   -2.053915   -0.285515
 ---------------------------------------------------------------------
 Rotational constants (GHZ):           9.3391909           4.4413951           3.1301473
 Leave Link  202 at Wed Jun 24 00:00:43 2026, MaxMem=  1879048192 cpu:               0.0 elap:               0.0
 (Enter /CH/g16/l301.exe)
 Standard basis: def2SVP (5D, 7F)
 Ernie: Thresh=  0.10000D-02 Tol=  0.10000D-05 Strict=F.
 There are    38 symmetry adapted cartesian basis functions of A1  symmetry.
 There are    12 symmetry adapted cartesian basis functions of A2  symmetry.
 There are    17 symmetry adapted cartesian basis functions of B1  symmetry.
 There are    27 symmetry adapted cartesian basis functions of B2  symmetry.
 There are    35 symmetry adapted basis functions of A1  symmetry.
 There are    12 symmetry adapted basis functions of A2  symmetry.
 There are    17 symmetry adapted basis functions of B1  symmetry.
 There are    26 symmetry adapted basis functions of B2  symmetry.
    90 basis functions,   154 primitive gaussians,    94 cartesian basis functions
    18 alpha electrons       18 beta electrons
       nuclear repulsion energy       144.0740936691 Hartrees.
 IExCor=  402 DFT=T Ex+Corr=B3LYP ExCW=0 ScaHFX=  0.200000
 ScaDFX=  0.800000  0.720000  1.000000  0.810000 ScalE2=  1.000000  1.000000
 IRadAn=      5 IRanWt=     -1 IRanGd=            0 ICorTp=0 IEmpDi=141
 NAtoms=   10 NActive=   10 NUniq=    5 SFac= 4.00D+00 NAtFMM=   60 NAOKFM=F Big=F
 Integral buffers will be    131072 words long.
 Raffenetti 2 integral format.
 Two-electron integral symmetry is turned on.
 R6Disp:  Grimme-D3(BJ) Dispersion energy=       -0.0127289321 Hartrees.
 Nuclear repulsion after empirical dispersion term =      144.0613647370 Hartrees.
 ------------------------------------------------------------------------------
 Polarizable Continuum Model (PCM)
 =================================
 Model                : PCM.
 Atomic radii         : SMD-Coulomb.
 Polarization charges : Total charges.
 Charge compensation  : None.
 Solution method      : On-the-fly selection.
 Cavity type          : VdW (van der Waals Surface) (Alpha=1.000).
 Cavity algorithm     : GePol (No added spheres)
                        Default sphere list used, NSphG=   10.
                        Lebedev-Laikov grids with approx.  5.0 points / Ang**2.
                        Smoothing algorithm: York/Karplus (Gamma=1.0000).
                        Polarization charges: spherical gaussians, with
                                              point-specific exponents (IZeta= 3).
                        Self-potential: point-specific (ISelfS= 7).
                        Self-field    : sphere-specific E.n sum rule (ISelfD= 2).
 1st derivatives      : Analytical E(r).r(x)/FMM algorithm (CHGder, D1EAlg=3).
                        Cavity 1st derivative terms included.
 Solvent              : TetraHydroFuran, Eps=   7.425700 Eps(inf)=   1.974025
 ------------------------------------------------------------------------------
 Spheres list:
 ISph  on   Nord     Re0    Alpha      Xe            Ye            Ze
    1  Mg      1    1.7300  1.000      0.000000     -0.000000      1.770643
    2   O      2    2.2940  1.000      0.000000      0.000000     -0.266617
    3   C      3    1.8500  1.000     -0.000000      1.217984     -0.998497
    4   C      4    1.8500  1.000     -0.000000     -1.217984     -0.998497
    5   H      5    1.2000  1.000     -0.894199      1.297202     -1.640446
    6   H      6    1.2000  1.000      0.894199      1.297202     -1.640446
    7   H      7    1.2000  1.000     -0.000000      2.053915     -0.285515
    8   H      8    1.2000  1.000     -0.894199     -1.297202     -1.640446
    9   H      9    1.2000  1.000      0.894199     -1.297202     -1.640446
   10   H     10    1.2000  1.000     -0.000000     -2.053915     -0.285515
 ------------------------------------------------------------------------------
 GePol: Number of generator spheres                  =      10
 GePol: Total number of spheres                      =      10
 GePol: Number of exposed spheres                    =      10 (100.00%)
 GePol: Number of points                             =     846
 GePol: Average weight of points                     =       0.12
 GePol: Minimum weight of points                     =   0.32D-06
 GePol: Maximum weight of points                     =    0.21501
 GePol: Number of points with low weight             =      56
 GePol: Fraction of low-weight points (<1% of avg)   =       6.62%
 GePol: Cavity surface area                          =    105.581 Ang**2
 GePol: Cavity volume                                =     85.879 Ang**3
 ------------------------------------------------------------------------------
 Atomic radii for non-electrostatic terms: SMD-CDS.
 ------------------------------------------------------------------------------
 PCM non-electrostatic energy =         0.0021372657 Hartrees.
 Nuclear repulsion after PCM non-electrostatic terms =      144.0635020027 Hartrees.
 Leave Link  301 at Wed Jun 24 00:00:43 2026, MaxMem=  1879048192 cpu:               0.1 elap:               0.0
 (Enter /CH/g16/l302.exe)
 NPDir=0 NMtPBC=     1 NCelOv=     1 NCel=       1 NClECP=     1 NCelD=      1
         NCelK=      1 NCelE2=     1 NClLst=     1 CellRange=     0.0.
 One-electron integrals computed using PRISM.
 One-electron integral symmetry used in STVInt
   4 Symmetry operations used in ECPInt.
 ECPInt:  NShTT=     990 NPrTT=    3650 LenC2=     988 LenP2D=    3132.
 LDataN:  DoStor=T MaxTD1= 4 Len=   56
 NBasis=    90 RedAO= T EigKep=  9.81D-03  NBF=    35    12    17    26
 NBsUse=    90 1.00D-06 EigRej= -1.00D+00 NBFU=    35    12    17    26
 Precomputing XC quadrature grid using
 IXCGrd= 4 IRadAn=           5 IRanWt=          -1 IRanGd=           0 AccXCQ= 0.00D+00.
 Generated NRdTot=       0 NPtTot=           0 NUsed=           0 NTot=          32
 NSgBfM=    94    94    94    94    94 MxSgAt=    10 MxSgA2=    10.
 Leave Link  302 at Wed Jun 24 00:00:43 2026, MaxMem=  1879048192 cpu:               0.4 elap:               0.1
 (Enter /CH/g16/l303.exe)
 DipDrv:  MaxL=1.
 Leave Link  303 at Wed Jun 24 00:00:43 2026, MaxMem=  1879048192 cpu:               0.0 elap:               0.0
 (Enter /CH/g16/l401.exe)
 Initial guess from the checkpoint file:  "Mg_Me2O.chk"
 B after Tr=    -0.000000   -0.000000    0.000000
         Rot=    1.000000   -0.000000   -0.000000    0.000000 Ang=   0.00 deg.
 Guess basis will be translated and rotated to current coordinates.
 JPrj=2 DoOrth=T DoCkMO=T.
 Initial guess orbital symmetries:
       Occupied  (A1) (A1) (B2) (A1) (A1) (B2) (B1) (A1) (A1) (B2)
                 (A1) (A1) (B2) (B1) (B2) (A2) (A1) (B1)
       Virtual   (A1) (B2) (B1) (A1) (A1) (A1) (A1) (B1) (B2) (A1)
                 (A2) (B2) (A2) (B2) (B1) (B2) (A1) (B1) (A1) (B2)
                 (A1) (A1) (A2) (A1) (B1) (B2) (B2) (B1) (A1) (B2)
                 (A2) (A1) (B2) (A1) (B2) (B1) (A1) (A2) (B2) (A1)
                 (B1) (B2) (B1) (A2) (A1) (A2) (A1) (B1) (B2) (B2)
                 (A1) (A2) (A1) (B1) (B2) (B2) (A1) (B1) (A2) (A1)
                 (B2) (A1) (A1) (B2) (A2) (B1) (B2) (B1) (A2) (A1)
                 (A1) (B2)
 The electronic state of the initial guess is 1-A1.
 Generating alternative initial guess.
 ExpMin= 3.36D-02 ExpMax= 4.95D+03 ExpMxC= 7.45D+02 IAcc=3 IRadAn=         5 AccDes= 0.00D+00
 Harris functional with IExCor=  402 and IRadAn=       5 diagonalized for initial guess.
 HarFok:  IExCor=  402 AccDes= 0.00D+00 IRadAn=         5 IDoV= 1 UseB2=F ITyADJ=14
 ICtDFT=  3500011 ScaDFX=  1.000000  1.000000  1.000000  1.000000
 FoFCou: FMM=F IPFlag=           0 FMFlag=      100000 FMFlg1=           0
         NFxFlg=           0 DoJE=T BraDBF=F KetDBF=T FulRan=T
         wScrn=  0.000000 ICntrl=       500 IOpCl=  0 I1Cent=   200000004 NGrid=           0
         NMat0=    1 NMatS0=      1 NMatT0=    0 NMatD0=    1 NMtDS0=    0 NMtDT0=    0
 Petite list used in FoFCou.
 Harris En= -354.606084425850    
 Leave Link  401 at Wed Jun 24 00:00:43 2026, MaxMem=  1879048192 cpu:               0.6 elap:               0.1
 (Enter /CH/g16/l502.exe)
 Keep R1 ints in memory in symmetry-blocked form, NReq=15746530.
 FoFCou: FMM=F IPFlag=           0 FMFlag=           0 FMFlg1=           0
         NFxFlg=           0 DoJE=F BraDBF=F KetDBF=F FulRan=T
         wScrn=  0.000000 ICntrl=       600 IOpCl=  0 I1Cent=           0 NGrid=           0
         NMat0=    1 NMatS0=   4095 NMatT0=    0 NMatD0=    1 NMtDS0=    0 NMtDT0=    0
 Petite list used in FoFCou.
 Closed shell SCF:
 Using DIIS extrapolation, IDIIS=  1040.
 NGot=  1879048192 LenX=  1876877552 LenY=  1876868275
 Requested convergence on RMS density matrix=1.00D-08 within 128 cycles.
 Requested convergence on MAX density matrix=1.00D-06.
 Requested convergence on             energy=1.00D-06.
 No special actions if energy rises.

 Cycle   1  Pass 1  IDiag  1:
 Inv3:  Mode=1 IEnd=     2147148.
 Iteration    1 A*A^-1 deviation from unit magnitude is 3.11D-15 for    475.
 Iteration    1 A*A^-1 deviation from orthogonality  is 1.44D-15 for    658    200.
 Iteration    1 A^-1*A deviation from unit magnitude is 2.66D-15 for    197.
 Iteration    1 A^-1*A deviation from orthogonality  is 1.24D-15 for    728     70.
 E= -354.662742200295    
 DIIS: error= 5.64D-03 at cycle   1 NSaved=   1.
 NSaved= 1 IEnMin= 1 EnMin= -354.662742200295     IErMin= 1 ErrMin= 5.64D-03
 ErrMax= 5.64D-03  0.00D+00 EMaxC= 1.00D-01 BMatC= 2.79D-03 BMatP= 2.79D-03
 IDIUse=3 WtCom= 9.44D-01 WtEn= 5.64D-02
 Coeff-Com:  0.100D+01
 Coeff-En:   0.100D+01
 Coeff:      0.100D+01
 Gap=     0.218 Goal=   None    Shift=    0.000
 GapD=    0.218 DampG=1.000 DampE=1.000 DampFc=1.0000 IDamp=-1.
 RMSDP=8.44D-04 MaxDP=1.12D-02              OVMax= 1.74D-02

 Cycle   2  Pass 1  IDiag  1:
 E= -354.666006483396     Delta-E=       -0.003264283101 Rises=F Damp=F
 DIIS: error= 1.08D-03 at cycle   2 NSaved=   2.
 NSaved= 2 IEnMin= 2 EnMin= -354.666006483396     IErMin= 2 ErrMin= 1.08D-03
 ErrMax= 1.08D-03  0.00D+00 EMaxC= 1.00D-01 BMatC= 1.17D-04 BMatP= 2.79D-03
 IDIUse=3 WtCom= 9.89D-01 WtEn= 1.08D-02
 Coeff-Com:  0.466D-01 0.953D+00
 Coeff-En:   0.000D+00 0.100D+01
 Coeff:      0.461D-01 0.954D+00
 Gap=     0.221 Goal=   None    Shift=    0.000
 RMSDP=2.01D-04 MaxDP=5.15D-03 DE=-3.26D-03 OVMax= 4.94D-03

 Cycle   3  Pass 1  IDiag  1:
 E= -354.666028211185     Delta-E=       -0.000021727789 Rises=F Damp=F
 DIIS: error= 1.28D-03 at cycle   3 NSaved=   3.
 NSaved= 3 IEnMin= 3 EnMin= -354.666028211185     IErMin= 2 ErrMin= 1.08D-03
 ErrMax= 1.28D-03  0.00D+00 EMaxC= 1.00D-01 BMatC= 9.67D-05 BMatP= 1.17D-04
 IDIUse=3 WtCom= 9.87D-01 WtEn= 1.28D-02
 Coeff-Com: -0.200D-01 0.478D+00 0.542D+00
 Coeff-En:   0.000D+00 0.448D+00 0.552D+00
 Coeff:     -0.197D-01 0.477D+00 0.543D+00
 Gap=     0.218 Goal=   None    Shift=    0.000
 RMSDP=1.02D-04 MaxDP=2.37D-03 DE=-2.17D-05 OVMax= 2.65D-03

 Cycle   4  Pass 1  IDiag  1:
 E= -354.666127279137     Delta-E=       -0.000099067952 Rises=F Damp=F
 DIIS: error= 8.90D-05 at cycle   4 NSaved=   4.
 NSaved= 4 IEnMin= 4 EnMin= -354.666127279137     IErMin= 4 ErrMin= 8.90D-05
 ErrMax= 8.90D-05  0.00D+00 EMaxC= 1.00D-01 BMatC= 9.55D-07 BMatP= 9.67D-05
 IDIUse=1 WtCom= 1.00D+00 WtEn= 0.00D+00
 Coeff-Com: -0.529D-02 0.110D+00 0.162D+00 0.733D+00
 Coeff:     -0.529D-02 0.110D+00 0.162D+00 0.733D+00
 Gap=     0.219 Goal=   None    Shift=    0.000
 RMSDP=1.32D-05 MaxDP=3.16D-04 DE=-9.91D-05 OVMax= 3.61D-04

 Cycle   5  Pass 1  IDiag  1:
 E= -354.666127730389     Delta-E=       -0.000000451252 Rises=F Damp=F
 DIIS: error= 6.81D-05 at cycle   5 NSaved=   5.
 NSaved= 5 IEnMin= 5 EnMin= -354.666127730389     IErMin= 5 ErrMin= 6.81D-05
 ErrMax= 6.81D-05  0.00D+00 EMaxC= 1.00D-01 BMatC= 5.54D-07 BMatP= 9.55D-07
 IDIUse=1 WtCom= 1.00D+00 WtEn= 0.00D+00
 Coeff-Com: -0.177D-02 0.249D-01 0.523D-01 0.456D+00 0.469D+00
 Coeff:     -0.177D-02 0.249D-01 0.523D-01 0.456D+00 0.469D+00
 Gap=     0.218 Goal=   None    Shift=    0.000
 RMSDP=5.14D-06 MaxDP=1.55D-04 DE=-4.51D-07 OVMax= 1.40D-04

 Cycle   6  Pass 1  IDiag  1:
 E= -354.666128124255     Delta-E=       -0.000000393866 Rises=F Damp=F
 DIIS: error= 6.43D-06 at cycle   6 NSaved=   6.
 NSaved= 6 IEnMin= 6 EnMin= -354.666128124255     IErMin= 6 ErrMin= 6.43D-06
 ErrMax= 6.43D-06  0.00D+00 EMaxC= 1.00D-01 BMatC= 3.67D-09 BMatP= 5.54D-07
 IDIUse=1 WtCom= 1.00D+00 WtEn= 0.00D+00
 Coeff-Com: -0.515D-04-0.292D-02 0.143D-04 0.658D-01 0.117D+00 0.820D+00
 Coeff:     -0.515D-04-0.292D-02 0.143D-04 0.658D-01 0.117D+00 0.820D+00
 Gap=     0.218 Goal=   None    Shift=    0.000
 RMSDP=5.18D-07 MaxDP=1.13D-05 DE=-3.94D-07 OVMax= 1.15D-05

 Cycle   7  Pass 1  IDiag  1:
 E= -354.666128126920     Delta-E=       -0.000000002665 Rises=F Damp=F
 DIIS: error= 6.10D-07 at cycle   7 NSaved=   7.
 NSaved= 7 IEnMin= 7 EnMin= -354.666128126920     IErMin= 7 ErrMin= 6.10D-07
 ErrMax= 6.10D-07  0.00D+00 EMaxC= 1.00D-01 BMatC= 1.96D-11 BMatP= 3.67D-09
 IDIUse=1 WtCom= 1.00D+00 WtEn= 0.00D+00
 Coeff-Com:  0.662D-05-0.739D-03-0.600D-03 0.586D-02 0.130D-01 0.134D+00
 Coeff-Com:  0.849D+00
 Coeff:      0.662D-05-0.739D-03-0.600D-03 0.586D-02 0.130D-01 0.134D+00
 Coeff:      0.849D+00
 Gap=     0.218 Goal=   None    Shift=    0.000
 RMSDP=5.59D-08 MaxDP=6.64D-07 DE=-2.67D-09 OVMax= 1.37D-06

 Cycle   8  Pass 1  IDiag  1:
 E= -354.666128126938     Delta-E=       -0.000000000017 Rises=F Damp=F
 DIIS: error= 7.74D-08 at cycle   8 NSaved=   8.
 NSaved= 8 IEnMin= 8 EnMin= -354.666128126938     IErMin= 8 ErrMin= 7.74D-08
 ErrMax= 7.74D-08  0.00D+00 EMaxC= 1.00D-01 BMatC= 3.98D-13 BMatP= 1.96D-11
 IDIUse=1 WtCom= 1.00D+00 WtEn= 0.00D+00
 Coeff-Com:  0.271D-05-0.318D-04-0.809D-04-0.620D-03-0.716D-03-0.258D-02
 Coeff-Com:  0.114D+00 0.890D+00
 Coeff:      0.271D-05-0.318D-04-0.809D-04-0.620D-03-0.716D-03-0.258D-02
 Coeff:      0.114D+00 0.890D+00
 Gap=     0.218 Goal=   None    Shift=    0.000
 RMSDP=9.73D-09 MaxDP=1.34D-07 DE=-1.73D-11 OVMax= 1.98D-07

 Error on total polarization charges =  0.01868
 SCF Done:  E(RB3LYP) =  -354.666128127     A.U. after    8 cycles
            NFock=  8  Conv=0.97D-08     -V/T= 2.0090
 KE= 3.514901065268D+02 PE=-1.109561241286D+03 EE= 2.593415046297D+02
 SMD-CDS (non-electrostatic) energy       (kcal/mol) =       1.34
 (included in total energy above)
 Leave Link  502 at Wed Jun 24 00:00:44 2026, MaxMem=  1879048192 cpu:               5.9 elap:               1.0
 (Enter /CH/g16/l701.exe)
 ... and contract with generalized density number  0.
 Compute integral first derivatives.
 R6Disp: Adding Grimme-D3(BJ) dispersion energy 1st derivatives to the gradient.
   4 Symmetry operations used in ECPInt.
 ECPInt:  NShTT=     990 NPrTT=    3650 LenC2=     988 LenP2D=    3132.
 LDataN:  DoStor=T MaxTD1= 5 Len=  102
 D1PCM: PCM CHGder 1st derivatives, ID1Alg=3 FixD1E=F DoIter=F DoCFld=F I1PDM=0.
 GePol: Maximum number of non-zero 1st derivatives   =     319
 Leave Link  701 at Wed Jun 24 00:00:44 2026, MaxMem=  1879048192 cpu:               1.6 elap:               0.2
 (Enter /CH/g16/l702.exe)
 L702 exits ... SP integral derivatives will be done elsewhere.
 Leave Link  702 at Wed Jun 24 00:00:44 2026, MaxMem=  1879048192 cpu:               0.0 elap:               0.0
 (Enter /CH/g16/l703.exe)
 Integral derivatives from FoFJK, PRISM(SPDF).
 Compute integral first derivatives, UseDBF=F ICtDFT=           0.
 Calling FoFJK, ICntrl=      2127 FMM=F ISym2X=1 I1Cent= 0 IOpClX= 0 NMat=1 NMatS=1 NMatT=0.
 FoFJK:  IHMeth= 1 ICntrl=    2127 DoSepK=F KAlg= 0 I1Cent=           0 FoldK=F
 IRaf=         0 NMat=       1 IRICut=       1 DoRegI=T DoRafI=F ISym2E= 1 IDoP0=0 IntGTp=1.
 FoFCou: FMM=F IPFlag=           0 FMFlag=      100000 FMFlg1=         800
         NFxFlg=           0 DoJE=F BraDBF=F KetDBF=F FulRan=T
         wScrn=  0.000000 ICntrl=      2127 IOpCl=  0 I1Cent=           0 NGrid=           0
         NMat0=    1 NMatS0=      1 NMatT0=    0 NMatD0=    1 NMtDS0=    0 NMtDT0=    0
 Petite list used in FoFCou.
 Leave Link  703 at Wed Jun 24 00:00:44 2026, MaxMem=  1879048192 cpu:               0.9 elap:               0.1
 (Enter /CH/g16/l716.exe)
 Dipole        = 1.90807172D-16-1.77635684D-15 5.04731702D+00
 ***** Axes restored to original set *****
 -------------------------------------------------------------------
 Center     Atomic                   Forces (Hartrees/Bohr)
 Number     Number              X              Y              Z
 -------------------------------------------------------------------
      1       12           0.000000000    0.000000000    0.006042727
      2        8           0.000000000   -0.000000000   -0.025130886
      3        6           0.000000000    0.013432624    0.016108685
      4        6           0.000000000   -0.013432624    0.016108685
      5        1           0.000182135   -0.002761856   -0.002588177
      6        1          -0.000182135   -0.002761856   -0.002588177
      7        1          -0.000000000   -0.000649345   -0.001388251
      8        1           0.000182135    0.002761856   -0.002588177
      9        1          -0.000182135    0.002761856   -0.002588177
     10        1          -0.000000000    0.000649345   -0.001388251
 -------------------------------------------------------------------
 Cartesian Forces:  Max     0.025130886 RMS     0.007325896
 Leave Link  716 at Wed Jun 24 00:00:44 2026, MaxMem=  1879048192 cpu:               0.0 elap:               0.0
 (Enter /CH/g16/l103.exe)

 GradGradGradGradGradGradGradGradGradGradGradGradGradGradGradGradGradGrad
 Berny optimization.
 Using GEDIIS/GDIIS optimizer.
 FormGI is forming the generalized inverse of G from B-inverse, IUseBI=4.
 Internal  Forces:  Max     0.011138340 RMS     0.003910852
 Search for a local minimum.
 Step number   2 out of a maximum of   46
 All quantities printed in internal units (Hartrees-Bohrs-Radians)
 RMS Force = .39109D-02 SwitMx=.10000D-02 MixMth= 1
 Mixed Optimization -- RFO/linear search
 Update second derivatives using D2CorX and points    1    2
 DE= -1.09D-02 DEPred=-1.05D-02 R= 1.04D+00
 TightC=F SS=  1.41D+00  RLast= 2.40D-01 DXNew= 5.0454D-01 7.1936D-01
 Trust test= 1.04D+00 RLast= 2.40D-01 DXMaxT set to 5.05D-01
 ITU=  1  0
 Use linear search instead of GDIIS.
     Eigenvalues ---    0.02158   0.02158   0.02158   0.08031   0.08134
     Eigenvalues ---    0.08291   0.08291   0.12957   0.15709   0.16000
     Eigenvalues ---    0.16000   0.16000   0.16000   0.18335   0.22471
     Eigenvalues ---    0.25000   0.34633   0.34633   0.34633   0.35032
     Eigenvalues ---    0.35306   0.36094   0.46275   0.52002
 RFO step:  Lambda=-2.26356923D-03 EMin= 2.15827658D-02
 Quartic linear search produced a step of  0.19232.
 Iteration  1 RMS(Cart)=  0.03095372 RMS(Int)=  0.00079517
 Iteration  2 RMS(Cart)=  0.00087275 RMS(Int)=  0.00018005
 Iteration  3 RMS(Cart)=  0.00000041 RMS(Int)=  0.00018005
 ITry= 1 IFail=0 DXMaxC= 7.88D-02 DCOld= 1.00D+10 DXMaxT= 5.05D-01 DXLimC= 3.00D+00 Rises=F
 ClnCor:  largest displacement from symmetrization is 2.92D-12 for atom     7.
 Variable       Old X    -DE/DX   Delta X   Delta X   Delta X     New X
                                 (Linear)    (Quad)   (Total)
    R1        3.84986  -0.00604  -0.00463  -0.05219  -0.05682   3.79304
    R2        2.68523   0.01114   0.02043   0.01855   0.03898   2.72421
    R3        2.68523   0.01114   0.02043   0.01855   0.03898   2.72421
    R4        2.08553  -0.00156   0.00438  -0.00669  -0.00231   2.08322
    R5        2.08553  -0.00156   0.00438  -0.00669  -0.00231   2.08322
    R6        2.07623   0.00041   0.00470  -0.00011   0.00458   2.08081
    R7        2.08553  -0.00156   0.00438  -0.00669  -0.00231   2.08322
    R8        2.08553  -0.00156   0.00438  -0.00669  -0.00231   2.08322
    R9        2.07623   0.00041   0.00470  -0.00011   0.00458   2.08081
    A1        2.11187   0.00493   0.00859   0.02082   0.02941   2.14129
    A2        2.11187   0.00493   0.00859   0.02082   0.02941   2.14129
    A3        2.05944  -0.00986  -0.01718  -0.04165  -0.05882   2.00061
    A4        1.94027  -0.00374   0.00939  -0.02959  -0.02049   1.91978
    A5        1.94027  -0.00374   0.00939  -0.02959  -0.02049   1.91978
    A6        1.89433  -0.00078  -0.00966  -0.00383  -0.01356   1.88076
    A7        1.88914   0.00408  -0.00337   0.03166   0.02778   1.91693
    A8        1.89954   0.00221  -0.00290   0.01655   0.01358   1.91313
    A9        1.89954   0.00221  -0.00290   0.01655   0.01358   1.91313
   A10        1.94027  -0.00374   0.00939  -0.02959  -0.02049   1.91978
   A11        1.94027  -0.00374   0.00939  -0.02959  -0.02049   1.91978
   A12        1.89433  -0.00078  -0.00966  -0.00383  -0.01356   1.88076
   A13        1.88914   0.00408  -0.00337   0.03166   0.02778   1.91693
   A14        1.89954   0.00221  -0.00290   0.01655   0.01358   1.91313
   A15        1.89954   0.00221  -0.00290   0.01655   0.01358   1.91313
    D1       -2.08866   0.00005   0.00372  -0.00001   0.00389  -2.08477
    D2        2.08866  -0.00005  -0.00372   0.00001  -0.00389   2.08477
    D3       -0.00000  -0.00000   0.00000  -0.00000   0.00000   0.00000
    D4        1.05294   0.00005   0.00372  -0.00001   0.00389   1.05683
    D5       -1.05294  -0.00005  -0.00372   0.00001  -0.00389  -1.05683
    D6        3.14159  -0.00000   0.00000  -0.00000   0.00000   3.14159
    D7        2.08866  -0.00005  -0.00372   0.00001  -0.00389   2.08477
    D8       -2.08866   0.00005   0.00372  -0.00001   0.00389  -2.08477
    D9       -0.00000  -0.00000   0.00000  -0.00000   0.00000   0.00000
   D10       -1.05294  -0.00005  -0.00372   0.00001  -0.00389  -1.05683
   D11        1.05294   0.00005   0.00372  -0.00001   0.00389   1.05683
   D12        3.14159  -0.00000   0.00000  -0.00000   0.00000   3.14159
         Item               Value     Threshold  Converged?
 Maximum Force            0.011138     0.000450     NO 
 RMS     Force            0.003911     0.000300     NO 
 Maximum Displacement     0.078797     0.001800     NO 
 RMS     Displacement     0.031303     0.001200     NO 
 Predicted change in Energy=-1.346191D-03
 Lowest energy point so far.  Saving SCF results.
 GradGradGradGradGradGradGradGradGradGradGradGradGradGradGradGradGradGrad

 Leave Link  103 at Wed Jun 24 00:00:44 2026, MaxMem=  1879048192 cpu:               0.0 elap:               0.0
 (Enter /CH/g16/l202.exe)
                          Input orientation:                          
 ---------------------------------------------------------------------
 Center     Atomic      Atomic             Coordinates (Angstroms)
 Number     Number       Type             X           Y           Z
 ---------------------------------------------------------------------
      1         12           0        0.000000   -0.000000   -2.114942
      2          8           0        0.000000   -0.000000   -0.107750
      3          6           0       -0.000000    1.213295    0.670773
      4          6           0        0.000000   -1.213295    0.670773
      5          1           0        0.902097    1.255505    1.302996
      6          1           0       -0.902097    1.255505    1.302996
      7          1           0       -0.000000    2.062290   -0.030419
      8          1           0        0.902097   -1.255505    1.302996
      9          1           0       -0.902097   -1.255505    1.302996
     10          1           0        0.000000   -2.062290   -0.030419
 ---------------------------------------------------------------------
                    Distance matrix (angstroms):
                    1          2          3          4          5
     1  Mg   0.000000
     2  O    2.007192   0.000000
     3  C    3.038468   1.441590   0.000000
     4  C    3.038468   1.441590   2.426591   0.000000
     5  H    3.751316   2.092911   1.102392   2.703416   0.000000
     6  H    3.751316   2.092911   1.102392   2.703416   1.804195
     7  H    2.932282   2.063739   1.101118   3.349795   1.800744
     8  H    3.751316   2.092911   2.703416   1.102392   2.511009
     9  H    3.751316   2.092911   2.703416   1.102392   3.091971
    10  H    2.932282   2.063739   3.349795   1.101118   3.687755
                    6          7          8          9         10
     6  H    0.000000
     7  H    1.800744   0.000000
     8  H    3.091971   3.687755   0.000000
     9  H    2.511009   3.687755   1.804195   0.000000
    10  H    3.687755   4.124580   1.800744   1.800744   0.000000
 Stoichiometry    C2H6MgO(2+)
 Framework group  C2V[C2(OMg),SGV(C2H2),X(H4)]
 Deg. of freedom     8
 Full point group                 C2V     NOp   4
 RotChk:  IX=0 Diff= 1.79D-16
 Largest Abelian subgroup         C2V     NOp   4
 Largest concise Abelian subgroup C2V     NOp   4
                         Standard orientation:                         
 ---------------------------------------------------------------------
 Center     Atomic      Atomic             Coordinates (Angstroms)
 Number     Number       Type             X           Y           Z
 ---------------------------------------------------------------------
      1         12           0        0.000000    0.000000    1.771760
      2          8           0       -0.000000   -0.000000   -0.235431
      3          6           0        0.000000    1.213295   -1.013954
      4          6           0       -0.000000   -1.213295   -1.013954
      5          1           0       -0.902097    1.255505   -1.646177
      6          1           0        0.902097    1.255505   -1.646177
      7          1           0        0.000000    2.062290   -0.312762
      8          1           0       -0.902097   -1.255505   -1.646177
      9          1           0        0.902097   -1.255505   -1.646177
     10          1           0       -0.000000   -2.062290   -0.312762
 ---------------------------------------------------------------------
 Rotational constants (GHZ):           9.4396690           4.4126411           3.1291571
 Leave Link  202 at Wed Jun 24 00:00:44 2026, MaxMem=  1879048192 cpu:               0.0 elap:               0.0
 (Enter /CH/g16/l301.exe)
 Standard basis: def2SVP (5D, 7F)
 Ernie: Thresh=  0.10000D-02 Tol=  0.10000D-05 Strict=F.
 There are    38 symmetry adapted cartesian basis functions of A1  symmetry.
 There are    12 symmetry adapted cartesian basis functions of A2  symmetry.
 There are    17 symmetry adapted cartesian basis functions of B1  symmetry.
 There are    27 symmetry adapted cartesian basis functions of B2  symmetry.
 There are    35 symmetry adapted basis functions of A1  symmetry.
 There are    12 symmetry adapted basis functions of A2  symmetry.
 There are    17 symmetry adapted basis functions of B1  symmetry.
 There are    26 symmetry adapted basis functions of B2  symmetry.
    90 basis functions,   154 primitive gaussians,    94 cartesian basis functions
    18 alpha electrons       18 beta electrons
       nuclear repulsion energy       143.8838469347 Hartrees.
 IExCor=  402 DFT=T Ex+Corr=B3LYP ExCW=0 ScaHFX=  0.200000
 ScaDFX=  0.800000  0.720000  1.000000  0.810000 ScalE2=  1.000000  1.000000
 IRadAn=      5 IRanWt=     -1 IRanGd=            0 ICorTp=0 IEmpDi=141
 NAtoms=   10 NActive=   10 NUniq=    5 SFac= 4.00D+00 NAtFMM=   60 NAOKFM=F Big=F
 Integral buffers will be    131072 words long.
 Raffenetti 2 integral format.
 Two-electron integral symmetry is turned on.
 R6Disp:  Grimme-D3(BJ) Dispersion energy=       -0.0127786123 Hartrees.
 Nuclear repulsion after empirical dispersion term =      143.8710683224 Hartrees.
 ------------------------------------------------------------------------------
 Polarizable Continuum Model (PCM)
 =================================
 Model                : PCM.
 Atomic radii         : SMD-Coulomb.
 Polarization charges : Total charges.
 Charge compensation  : None.
 Solution method      : On-the-fly selection.
 Cavity type          : VdW (van der Waals Surface) (Alpha=1.000).
 Cavity algorithm     : GePol (No added spheres)
                        Default sphere list used, NSphG=   10.
                        Lebedev-Laikov grids with approx.  5.0 points / Ang**2.
                        Smoothing algorithm: York/Karplus (Gamma=1.0000).
                        Polarization charges: spherical gaussians, with
                                              point-specific exponents (IZeta= 3).
                        Self-potential: point-specific (ISelfS= 7).
                        Self-field    : sphere-specific E.n sum rule (ISelfD= 2).
 1st derivatives      : Analytical E(r).r(x)/FMM algorithm (CHGder, D1EAlg=3).
                        Cavity 1st derivative terms included.
 Solvent              : TetraHydroFuran, Eps=   7.425700 Eps(inf)=   1.974025
 ------------------------------------------------------------------------------
 Spheres list:
 ISph  on   Nord     Re0    Alpha      Xe            Ye            Ze
    1  Mg      1    1.7300  1.000     -0.000000      0.000000      1.771760
    2   O      2    2.2940  1.000     -0.000000     -0.000000     -0.235431
    3   C      3    1.8500  1.000     -0.000000      1.213295     -1.013954
    4   C      4    1.8500  1.000     -0.000000     -1.213295     -1.013954
    5   H      5    1.2000  1.000     -0.902097      1.255505     -1.646177
    6   H      6    1.2000  1.000      0.902097      1.255505     -1.646177
    7   H      7    1.2000  1.000     -0.000000      2.062290     -0.312762
    8   H      8    1.2000  1.000     -0.902097     -1.255505     -1.646177
    9   H      9    1.2000  1.000      0.902097     -1.255505     -1.646177
   10   H     10    1.2000  1.000     -0.000000     -2.062290     -0.312762
 ------------------------------------------------------------------------------
 GePol: Number of generator spheres                  =      10
 GePol: Total number of spheres                      =      10
 GePol: Number of exposed spheres                    =      10 (100.00%)
 GePol: Number of points                             =     834
 GePol: Average weight of points                     =       0.13
 GePol: Minimum weight of points                     =   0.28D-10
 GePol: Maximum weight of points                     =    0.21501
 GePol: Number of points with low weight             =      40
 GePol: Fraction of low-weight points (<1% of avg)   =       4.80%
 GePol: Cavity surface area                          =    105.569 Ang**2
 GePol: Cavity volume                                =     85.937 Ang**3
 ------------------------------------------------------------------------------
 Atomic radii for non-electrostatic terms: SMD-CDS.
 ------------------------------------------------------------------------------
 PCM non-electrostatic energy =         0.0022071746 Hartrees.
 Nuclear repulsion after PCM non-electrostatic terms =      143.8732754970 Hartrees.
 Leave Link  301 at Wed Jun 24 00:00:44 2026, MaxMem=  1879048192 cpu:               0.0 elap:               0.0
 (Enter /CH/g16/l302.exe)
 NPDir=0 NMtPBC=     1 NCelOv=     1 NCel=       1 NClECP=     1 NCelD=      1
         NCelK=      1 NCelE2=     1 NClLst=     1 CellRange=     0.0.
 One-electron integrals computed using PRISM.
 One-electron integral symmetry used in STVInt
   4 Symmetry operations used in ECPInt.
 ECPInt:  NShTT=     990 NPrTT=    3650 LenC2=     988 LenP2D=    3132.
 LDataN:  DoStor=T MaxTD1= 4 Len=   56
 NBasis=    90 RedAO= T EigKep=  9.54D-03  NBF=    35    12    17    26
 NBsUse=    90 1.00D-06 EigRej= -1.00D+00 NBFU=    35    12    17    26
 Precomputing XC quadrature grid using
 IXCGrd= 4 IRadAn=           5 IRanWt=          -1 IRanGd=           0 AccXCQ= 0.00D+00.
 Generated NRdTot=       0 NPtTot=           0 NUsed=           0 NTot=          32
 NSgBfM=    94    94    94    94    94 MxSgAt=    10 MxSgA2=    10.
 Leave Link  302 at Wed Jun 24 00:00:44 2026, MaxMem=  1879048192 cpu:               0.4 elap:               0.1
 (Enter /CH/g16/l303.exe)
 DipDrv:  MaxL=1.
 Leave Link  303 at Wed Jun 24 00:00:45 2026, MaxMem=  1879048192 cpu:               0.0 elap:               0.0
 (Enter /CH/g16/l401.exe)
 Initial guess from the checkpoint file:  "Mg_Me2O.chk"
 B after Tr=    -0.000000   -0.000000    0.000000
         Rot=    1.000000    0.000000    0.000000    0.000000 Ang=   0.00 deg.
 Guess basis will be translated and rotated to current coordinates.
 JPrj=2 DoOrth=T DoCkMO=T.
 Initial guess orbital symmetries:
       Occupied  (A1) (A1) (B2) (A1) (A1) (B2) (B1) (A1) (A1) (B2)
                 (A1) (A1) (B2) (B1) (A2) (B2) (A1) (B1)
       Virtual   (A1) (B2) (B1) (A1) (A1) (A1) (A1) (B2) (B1) (A1)
                 (A2) (B2) (B2) (A2) (B1) (B2) (A1) (B1) (A1) (B2)
                 (A1) (A1) (A2) (A1) (B2) (B1) (B2) (B1) (A1) (B2)
                 (A2) (A1) (B2) (A1) (B2) (B1) (A1) (B2) (A2) (B1)
                 (A1) (B2) (B1) (A2) (A1) (A2) (A1) (B1) (B2) (A1)
                 (B2) (A2) (A1) (B1) (B2) (B2) (A1) (B1) (A2) (A1)
                 (B2) (A1) (B2) (A1) (A2) (B1) (B2) (B1) (A1) (A2)
                 (A1) (B2)
 The electronic state of the initial guess is 1-A1.
 Generating alternative initial guess.
 ExpMin= 3.36D-02 ExpMax= 4.95D+03 ExpMxC= 7.45D+02 IAcc=3 IRadAn=         5 AccDes= 0.00D+00
 Harris functional with IExCor=  402 and IRadAn=       5 diagonalized for initial guess.
 HarFok:  IExCor=  402 AccDes= 0.00D+00 IRadAn=         5 IDoV= 1 UseB2=F ITyADJ=14
 ICtDFT=  3500011 ScaDFX=  1.000000  1.000000  1.000000  1.000000
[...]
 ITU=  0  1  1  1  1  0
     Eigenvalues ---    0.02158   0.02158   0.02158   0.08023   0.08373
     Eigenvalues ---    0.08412   0.08537   0.08537   0.14223   0.16000
     Eigenvalues ---    0.16000   0.16000   0.16000   0.16506   0.20834
     Eigenvalues ---    0.25000   0.34633   0.34633   0.34633   0.34836
     Eigenvalues ---    0.35306   0.37055   0.45790   0.52002
 En-DIIS/RFO-DIIS/Sim-DIIS IScMMF=       -3 using points:     6    5    4
 RFO step:  Lambda=-3.65752109D-08.
 NNeg= 0 NGDIIS= 3 SimSw=  2.50D-01 Rises=F DC= -9.42D-07 SmlDif=  1.00D-05
 NRisDI= 0 DoIntr=F SqrtH=F CThrHd= 10.0 CDAdj=  3.0
 RMS Error=  0.8451589127D-04 NUsed= 3 OKEnD=F EnDIS=F
 InvSVX:  RCond= 4.41D-07 Info=           0 Equed=N FErr=  3.76D-15 BErr=  4.32D-17
 DidBck=F Rises=F RFO-DIIS coefs:    1.24045   -0.29685    0.05640
 Iteration  1 RMS(Cart)=  0.00017881 RMS(Int)=  0.00000003
 Iteration  2 RMS(Cart)=  0.00000002 RMS(Int)=  0.00000002
 ITry= 1 IFail=0 DXMaxC= 4.07D-04 DCOld= 1.00D+10 DXMaxT= 5.05D-01 DXLimC= 3.00D+00 Rises=F
 ClnCor:  largest displacement from symmetrization is 7.36D-13 for atom    10.
 Variable       Old X    -DE/DX   Delta X   Delta X   Delta X     New X
                                 (Linear)    (Quad)   (Total)
    R1        3.73191  -0.00002  -0.00007  -0.00003  -0.00010   3.73181
    R2        2.74197  -0.00002  -0.00015   0.00003  -0.00013   2.74184
    R3        2.74197  -0.00002  -0.00015   0.00003  -0.00013   2.74184
    R4        2.07737   0.00002   0.00005   0.00001   0.00006   2.07743
    R5        2.07737   0.00002   0.00005   0.00001   0.00006   2.07743
    R6        2.07530   0.00003   0.00008   0.00003   0.00011   2.07541
    R7        2.07737   0.00002   0.00005   0.00001   0.00006   2.07743
    R8        2.07737   0.00002   0.00005   0.00001   0.00006   2.07743
    R9        2.07530   0.00003   0.00008   0.00003   0.00011   2.07541
    A1        2.15117  -0.00002  -0.00014   0.00002  -0.00012   2.15105
    A2        2.15117  -0.00002  -0.00014   0.00002  -0.00012   2.15105
    A3        1.98085   0.00003   0.00028  -0.00004   0.00024   1.98108
    A4        1.90400   0.00002   0.00009   0.00003   0.00012   1.90412
    A5        1.90400   0.00002   0.00009   0.00003   0.00012   1.90412
    A6        1.88040  -0.00001  -0.00003   0.00002  -0.00000   1.88040
    A7        1.93081  -0.00002  -0.00011  -0.00004  -0.00015   1.93066
    A8        1.92187  -0.00000  -0.00002  -0.00002  -0.00004   1.92183
    A9        1.92187  -0.00000  -0.00002  -0.00002  -0.00004   1.92183
   A10        1.90400   0.00002   0.00009   0.00003   0.00012   1.90412
   A11        1.90400   0.00002   0.00009   0.00003   0.00012   1.90412
   A12        1.88040  -0.00001  -0.00003   0.00002  -0.00000   1.88040
   A13        1.93081  -0.00002  -0.00011  -0.00004  -0.00015   1.93066
   A14        1.92187  -0.00000  -0.00002  -0.00002  -0.00004   1.92183
   A15        1.92187  -0.00000  -0.00002  -0.00002  -0.00004   1.92183
    D1       -2.08611  -0.00000  -0.00001  -0.00001  -0.00002  -2.08613
    D2        2.08611   0.00000   0.00001   0.00001   0.00002   2.08613
    D3        0.00000   0.00000   0.00000   0.00000   0.00000   0.00000
    D4        1.05548  -0.00000  -0.00001  -0.00001  -0.00002   1.05546
    D5       -1.05548   0.00000   0.00001   0.00001   0.00002  -1.05546
    D6        3.14159   0.00000   0.00000   0.00000   0.00000   3.14159
    D7        2.08611   0.00000   0.00001   0.00001   0.00002   2.08613
    D8       -2.08611  -0.00000  -0.00001  -0.00001  -0.00002  -2.08613
    D9       -0.00000  -0.00000   0.00000   0.00000   0.00000   0.00000
   D10       -1.05548   0.00000   0.00001   0.00001   0.00002  -1.05546
   D11        1.05548  -0.00000  -0.00001  -0.00001  -0.00002   1.05546
   D12        3.14159  -0.00000   0.00000  -0.00000   0.00000   3.14159
         Item               Value     Threshold  Converged?
 Maximum Force            0.000034     0.000450     YES
 RMS     Force            0.000015     0.000300     YES
 Maximum Displacement     0.000407     0.001800     YES
 RMS     Displacement     0.000179     0.001200     YES
 Predicted change in Energy=-2.127899D-08
 Optimization completed.
    -- Stationary point found.
                           ----------------------------
                           !   Optimized Parameters   !
                           ! (Angstroms and Degrees)  !
 --------------------------                            --------------------------
 ! Name  Definition              Value          Derivative Info.                !
 --------------------------------------------------------------------------------
 ! R1    R(1,2)                  1.9748         -DE/DX =    0.0                 !
 ! R2    R(2,3)                  1.451          -DE/DX =    0.0                 !
 ! R3    R(2,4)                  1.451          -DE/DX =    0.0                 !
 ! R4    R(3,5)                  1.0993         -DE/DX =    0.0                 !
 ! R5    R(3,6)                  1.0993         -DE/DX =    0.0                 !
 ! R6    R(3,7)                  1.0982         -DE/DX =    0.0                 !
 ! R7    R(4,8)                  1.0993         -DE/DX =    0.0                 !
 ! R8    R(4,9)                  1.0993         -DE/DX =    0.0                 !
 ! R9    R(4,10)                 1.0982         -DE/DX =    0.0                 !
 ! A1    A(1,2,3)              123.253          -DE/DX =    0.0                 !
 ! A2    A(1,2,4)              123.253          -DE/DX =    0.0                 !
 ! A3    A(3,2,4)              113.4941         -DE/DX =    0.0                 !
 ! A4    A(2,3,5)              109.0913         -DE/DX =    0.0                 !
 ! A5    A(2,3,6)              109.0913         -DE/DX =    0.0                 !
 ! A6    A(2,3,7)              107.739          -DE/DX =    0.0                 !
 ! A7    A(5,3,6)              110.6274         -DE/DX =    0.0                 !
 ! A8    A(5,3,7)              110.115          -DE/DX =    0.0                 !
 ! A9    A(6,3,7)              110.115          -DE/DX =    0.0                 !
 ! A10   A(2,4,8)              109.0913         -DE/DX =    0.0                 !
 ! A11   A(2,4,9)              109.0913         -DE/DX =    0.0                 !
 ! A12   A(2,4,10)             107.739          -DE/DX =    0.0                 !
 ! A13   A(8,4,9)              110.6274         -DE/DX =    0.0                 !
 ! A14   A(8,4,10)             110.115          -DE/DX =    0.0                 !
 ! A15   A(9,4,10)             110.115          -DE/DX =    0.0                 !
 ! D1    D(1,2,3,5)           -119.5252         -DE/DX =    0.0                 !
 ! D2    D(1,2,3,6)            119.5252         -DE/DX =    0.0                 !
 ! D3    D(1,2,3,7)              0.0            -DE/DX =    0.0                 !
 ! D4    D(4,2,3,5)             60.4748         -DE/DX =    0.0                 !
 ! D5    D(4,2,3,6)            -60.4748         -DE/DX =    0.0                 !
 ! D6    D(4,2,3,7)            180.0            -DE/DX =    0.0                 !
 ! D7    D(1,2,4,8)            119.5252         -DE/DX =    0.0                 !
 ! D8    D(1,2,4,9)           -119.5252         -DE/DX =    0.0                 !
 ! D9    D(1,2,4,10)             0.0            -DE/DX =    0.0                 !
 ! D10   D(3,2,4,8)            -60.4748         -DE/DX =    0.0                 !
 ! D11   D(3,2,4,9)             60.4748         -DE/DX =    0.0                 !
 ! D12   D(3,2,4,10)           180.0            -DE/DX =    0.0                 !
 --------------------------------------------------------------------------------
 Lowest energy point so far.  Saving SCF results.
 Largest change from initial coordinates is atom    2       0.072 Angstoms.
 GradGradGradGradGradGradGradGradGradGradGradGradGradGradGradGradGradGrad

 Leave Link  103 at Wed Jun 24 00:00:51 2026, MaxMem=  1879048192 cpu:               0.0 elap:               0.0
 (Enter /CH/g16/l202.exe)
                          Input orientation:                          
 ---------------------------------------------------------------------
 Center     Atomic      Atomic             Coordinates (Angstroms)
 Number     Number       Type             X           Y           Z
 ---------------------------------------------------------------------
      1         12           0        0.000000   -0.000000   -2.098721
      2          8           0        0.000000    0.000000   -0.123880
      3          6           0       -0.000000    1.213400    0.671749
      4          6           0        0.000000   -1.213400    0.671749
      5          1           0        0.903930    1.233360    1.297022
      6          1           0       -0.903930    1.233360    1.297022
      7          1           0       -0.000000    2.066767   -0.019492
      8          1           0        0.903930   -1.233360    1.297022
      9          1           0       -0.903930   -1.233360    1.297022
     10          1           0        0.000000   -2.066767   -0.019492
 ---------------------------------------------------------------------
                    Distance matrix (angstroms):
                    1          2          3          4          5
     1  Mg   0.000000
     2  O    1.974841   0.000000
     3  C    3.024541   1.450988   0.000000
     4  C    3.024541   1.450988   2.426800   0.000000
     5  H    3.724156   2.087398   1.099297   2.682292   0.000000
     6  H    3.724156   2.087398   1.099297   2.682292   1.807860
     7  H    2.931675   2.069402   1.098203   3.352210   1.801351
     8  H    3.724156   2.087398   2.682292   1.099297   2.466720
     9  H    3.724156   2.087398   2.682292   1.099297   3.058278
    10  H    2.931675   2.069402   3.352210   1.098203   3.666216
                    6          7          8          9         10
     6  H    0.000000
     7  H    1.801351   0.000000
     8  H    3.058278   3.666216   0.000000
     9  H    2.466720   3.666216   1.807860   0.000000
    10  H    3.666216   4.133534   1.801351   1.801351   0.000000
 Stoichiometry    C2H6MgO(2+)
 Framework group  C2V[C2(OMg),SGV(C2H2),X(H4)]
 Deg. of freedom     8
 Full point group                 C2V     NOp   4
 RotChk:  IX=0 Diff= 3.70D-16
 Largest Abelian subgroup         C2V     NOp   4
 Largest concise Abelian subgroup C2V     NOp   4
                         Standard orientation:                         
 ---------------------------------------------------------------------
 Center     Atomic      Atomic             Coordinates (Angstroms)
 Number     Number       Type             X           Y           Z
 ---------------------------------------------------------------------
      1         12           0        0.000000   -0.000000    1.757521
      2          8           0        0.000000    0.000000   -0.217320
      3          6           0        0.000000    1.213400   -1.012949
      4          6           0       -0.000000   -1.213400   -1.012949
      5          1           0       -0.903930    1.233360   -1.638222
      6          1           0        0.903930    1.233360   -1.638222
      7          1           0        0.000000    2.066767   -0.321708
      8          1           0       -0.903930   -1.233360   -1.638222
      9          1           0        0.903930   -1.233360   -1.638222
     10          1           0       -0.000000   -2.066767   -0.321708
 ---------------------------------------------------------------------
 Rotational constants (GHZ):           9.4689343           4.4697431           3.1615603
 Leave Link  202 at Wed Jun 24 00:00:51 2026, MaxMem=  1879048192 cpu:               0.0 elap:               0.0
 (Enter /CH/g16/l601.exe)
 Copying SCF densities to generalized density rwf, IOpCl= 0 IROHF=0.

 **********************************************************************

            Population analysis using the SCF Density.

 **********************************************************************

 Orbital symmetries:
       Occupied  (A1) (A1) (B2) (A1) (A1) (B2) (B1) (A1) (A1) (B2)
                 (A1) (A1) (B2) (B1) (A2) (B2) (A1) (B1)
       Virtual   (A1) (B2) (B1) (A1) (A1) (A1) (A1) (B2) (B1) (A1)
                 (B2) (A2) (B2) (A2) (B1) (B2) (A1) (B1) (B2) (A1)
                 (A1) (A1) (A2) (A1) (B2) (B1) (B2) (B1) (A1) (B2)
                 (A1) (A2) (B2) (A1) (B2) (B1) (A1) (A2) (B2) (B1)
                 (A1) (B2) (B1) (A2) (A1) (A2) (A1) (B1) (B2) (B2)
                 (A1) (A2) (A1) (B1) (B2) (B2) (A1) (B1) (A2) (A1)
                 (B2) (A1) (B2) (A1) (A2) (B1) (B2) (B1) (A2) (A1)
                 (A1) (B2)
 The electronic state is 1-A1.
 Alpha  occ. eigenvalues --  -47.02948 -19.26096 -10.29409 -10.29408  -3.29157
 Alpha  occ. eigenvalues --   -2.03889  -2.03833  -2.03701  -1.11813  -0.78562
 Alpha  occ. eigenvalues --   -0.70300  -0.56822  -0.55050  -0.54373  -0.45455
 Alpha  occ. eigenvalues --   -0.44485  -0.43542  -0.36528
 Alpha virt. eigenvalues --   -0.13728  -0.02693  -0.02061  -0.00288   0.02848
 Alpha virt. eigenvalues --    0.06245   0.07788   0.08545   0.08745   0.10020
 Alpha virt. eigenvalues --    0.11844   0.12441   0.14610   0.17089   0.18209
 Alpha virt. eigenvalues --    0.19628   0.20823   0.22558   0.26786   0.26885
 Alpha virt. eigenvalues --    0.32973   0.39065   0.43304   0.46585   0.47518
 Alpha virt. eigenvalues --    0.49593   0.56628   0.59947   0.60315   0.61081
 Alpha virt. eigenvalues --    0.63876   0.64392   0.64880   0.71705   0.88515
 Alpha virt. eigenvalues --    0.90895   1.01507   1.12888   1.12985   1.32345
 Alpha virt. eigenvalues --    1.34753   1.38516   1.46340   1.46989   1.50760
 Alpha virt. eigenvalues --    1.63243   1.67476   1.67565   1.71570   1.73719
 Alpha virt. eigenvalues --    1.77293   1.82043   1.83691   1.88402   1.98012
 Alpha virt. eigenvalues --    2.07690   2.11670   2.25167   2.28982   2.30995
 Alpha virt. eigenvalues --    2.36875   2.59081   2.61129   2.70060   2.74041
 Alpha virt. eigenvalues --    2.76954   2.79728   2.80957   2.95877   3.00870
 Alpha virt. eigenvalues --    3.13872   3.32146
          Condensed to atoms (all electrons):
               1          2          3          4          5          6
     1  Mg  10.099425   0.204616  -0.013634  -0.013634   0.000406   0.000406
     2  O    0.204616   8.073834   0.216397   0.216397  -0.024010  -0.024010
     3  C   -0.013634   0.216397   4.423169  -0.015607   0.404986   0.404986
     4  C   -0.013634   0.216397  -0.015607   4.423169  -0.001727  -0.001727
     5  H    0.000406  -0.024010   0.404986  -0.001727   0.575396  -0.022647
     6  H    0.000406  -0.024010   0.404986  -0.001727  -0.022647   0.575396
     7  H    0.003014  -0.020895   0.397668   0.004727  -0.017927  -0.017927
     8  H    0.000406  -0.024010  -0.001727   0.404986   0.006998  -0.002868
     9  H    0.000406  -0.024010  -0.001727   0.404986  -0.002868   0.006998
    10  H    0.003014  -0.020895   0.004727   0.397668   0.000064   0.000064
               7          8          9         10
     1  Mg   0.003014   0.000406   0.000406   0.003014
     2  O   -0.020895  -0.024010  -0.024010  -0.020895
     3  C    0.397668  -0.001727  -0.001727   0.004727
     4  C    0.004727   0.404986   0.404986   0.397668
     5  H   -0.017927   0.006998  -0.002868   0.000064
     6  H   -0.017927  -0.002868   0.006998   0.000064
     7  H    0.566091   0.000064   0.000064  -0.000379
     8  H    0.000064   0.575396  -0.022647  -0.017927
     9  H    0.000064  -0.022647   0.575396  -0.017927
    10  H   -0.000379  -0.017927  -0.017927   0.566091
 Mulliken charges:
               1
     1  Mg   1.715574
     2  O   -0.573412
     3  C    0.180762
     4  C    0.180762
     5  H    0.081329
     6  H    0.081329
     7  H    0.085498
     8  H    0.081329
     9  H    0.081329
    10  H    0.085498
 Sum of Mulliken charges =   2.00000
 Mulliken charges with hydrogens summed into heavy atoms:
               1
     1  Mg   1.715574
     2  O   -0.573412
     3  C    0.428919
     4  C    0.428919
 Electronic spatial extent (au):  <R**2>=            362.4293
 Charge=              2.0000 electrons
 Dipole moment (field-independent basis, Debye):
    X=             -0.0000    Y=             -0.0000    Z=             12.3961  Tot=             12.3961
 Quadrupole moment (field-independent basis, Debye-Ang):
   XX=            -21.2694   YY=            -15.7299   ZZ=             11.8926
   XY=              0.0000   XZ=             -0.0000   YZ=              0.0000
 Traceless Quadrupole moment (field-independent basis, Debye-Ang):
   XX=            -12.9005   YY=             -7.3610   ZZ=             20.2615
   XY=              0.0000   XZ=             -0.0000   YZ=              0.0000
 Octapole moment (field-independent basis, Debye-Ang**2):
  XXX=              0.0000  YYY=             -0.0000  ZZZ=             80.3184  XYY=              0.0000
  XXY=             -0.0000  XXZ=              8.7166  XZZ=              0.0000  YZZ=             -0.0000
  YYZ=              6.5729  XYZ=             -0.0000
 Hexadecapole moment (field-independent basis, Debye-Ang**3):
 XXXX=            -31.2264 YYYY=           -145.2460 ZZZZ=            -66.5192 XXXY=             -0.0000
 XXXZ=             -0.0000 YYYX=              0.0000 YYYZ=              0.0000 ZZZX=             -0.0000
 ZZZY=              0.0000 XXYY=            -32.1591 XXZZ=            -27.9487 YYZZ=            -48.0340
 XXYZ=              0.0000 YYXZ=             -0.0000 ZZXY=              0.0000
 N-N= 1.443311183703D+02 E-N=-1.110177690519D+03  KE= 3.514944685864D+02
 Symmetry A1   KE= 2.713596250126D+02
 Symmetry A2   KE= 2.123956595355D+00
 Symmetry B1   KE= 2.202693157913D+01
 Symmetry B2   KE= 5.598395539933D+01
 No NMR shielding tensors so no spin-rotation constants.
 Leave Link  601 at Wed Jun 24 00:00:51 2026, MaxMem=  1879048192 cpu:               0.3 elap:               0.1
 (Enter /CH/g16/l9999.exe)
 Unable to Open any file for archive entry.
 1\1\GINC-NODE0-CHCLUSTER\FOpt\RB3LYP\def2SVP\C2H6Mg1O1(2+)\LS\24-Jun-2
 026\0\\#p B3LYP/def2SVP EmpiricalDispersion=GD3BJ opt SCRF=(SMD,Solven
 t=Tetrahydrofuran) int=ultrafine\\Mg_Me2O\\2,1\Mg,0.,0.,-2.0987209608\
 O,0.,0.,-0.1238802642\C,0.,1.2134002402,0.6717493307\C,0.,-1.213400240
 2,0.6717493307\H,0.9039299377,1.2333602007,1.2970218674\H,-0.903929937
 7,1.2333602007,1.2970218674\H,0.,2.0667672315,-0.019492453\H,0.9039299
 377,-1.2333602007,1.2970218674\H,-0.9039299377,-1.2333602007,1.2970218
 674\H,0.,-2.0667672315,-0.019492453\\Version=ES64L-G16RevC.02\State=1-
 A1\HF=-354.6682663\RMSD=1.632e-09\RMSF=2.247e-05\Dipole=0.,0.,-4.87698
 8\Quadrupole=-9.5912131,-5.4727384,15.0639515,0.,0.,0.\PG=C02V [C2(O1M
 g1),SGV(C2H2),X(H4)]\\@
 The archive entry for this job was punched.


          EVOLUTION
 IN THE BEGINNING GOD MADE MAN.
 HE WORKED THE DIRT WITH HIS HANDS.
 THEN GOD DECIDED TO GIVE MAN SCIENCE,
 MAN SHOULD BE USEFUL (LIKE AN APPLIANCE.)
 BUT SOON MAN'S KNOWLEDGE GREW TOO GREAT,
 TO THE HEADING SCIENCE HE COULDN'T RELATE
 SO GOD SAID "LETS HAVE DIFFERENT FIELDS,
 WE'LL DIVIDE THEM UP, SEE WHAT IT YIELDS."
 ENTER PHYSICS, CHEMISTRY, BIO
 THEY SPRANG UP AROUND THE NILE.
 BUT CHEMISTRY SURPASSED THE REST
 FAR AND AWAY IT WAS THE BEST.
 EXPERIMENT WAS GOD'S DECREE
 EXPERIMENT DID CHEMISTS WITH LOTS OF GLEE
 BUT SOON THEIR TESTS BEGAN TO BOG,
 THEY FOUND THEMSELVES DEEP IN A FOG.
 "GIVE US SOME HELP" THEY CRIED TO GOD.
 GOD LOOKED AROUND, THEN GAVE THE NOD.
 ENTER EINSTEIN, HEISENBERG, BOHR,
 REACTION PATHS WERE CLEAR ONCE MORE.
 WITH THEORISTS GOD SEND DIRECTION
 AND THEN HE STOPPED, HE'D MADE PERFECTION.
          -- THOMAS A. HOLME, 1981
 Job cpu time:       0 days  0 hours  1 minutes  2.0 seconds.
 Elapsed time:       0 days  0 hours  0 minutes 10.3 seconds.
 File lengths (MBytes):  RWF=     34 Int=      0 D2E=      0 Chk=      3 Scr=      1
 Normal termination of Gaussian 16 at Wed Jun 24 00:00:51 2026.
