 Entering Gaussian System, Link 0=/CH/g16/g16
 Initial command:
 /CH/g16/l1.exe "/tmp/g16_Mg_THF_2866645/Gau-2866660.inp" -scrdir="/tmp/g16_Mg_THF_2866645/"
 Default is to use a total of  96 processors:
                               96 via shared-memory
                                1 via Linda
 Entering Link 1 = /CH/g16/l1.exe PID=   2866665.
  
 Copyright (c) 1988-2021, Gaussian, Inc.  All Rights Reserved.
  
 This is part of the Gaussian(R) 16 program.  It is based on
 the Gaussian(R) 09 system (copyright 2009, Gaussian, Inc.),
 the Gaussian(R) 03 system (copyright 2003, Gaussian, Inc.),
 the Gaussian(R) 98 system (copyright 1998, Gaussian, Inc.),
 the Gaussian(R) 94 system (copyright 1995, Gaussian, Inc.),
 the Gaussian 92(TM) system (copyright 1992, Gaussian, Inc.),
 the Gaussian 90(TM) system (copyright 1990, Gaussian, Inc.),
 the Gaussian 88(TM) system (copyright 1988, Gaussian, Inc.),
 the Gaussian 86(TM) system (copyright 1986, Carnegie Mellon
 University), and the Gaussian 82(TM) system (copyright 1983,
 Carnegie Mellon University). Gaussian is a federally registered
 trademark of Gaussian, Inc.
  
 This software contains proprietary and confidential information,
 including trade secrets, belonging to Gaussian, Inc.
  
 This software is provided under written license and may be
 used, copied, transmitted, or stored only in accord with that
 written license.
  
 The following legend is applicable only to US Government
 contracts under FAR:
  
                    RESTRICTED RIGHTS LEGEND
  
 Use, reproduction and disclosure by the US Government is
 subject to restrictions as set forth in subparagraphs (a)
 and (c) of the Commercial Computer Software - Restricted
 Rights clause in FAR 52.227-19.
  
 Gaussian, Inc.
 340 Quinnipiac St., Bldg. 40, Wallingford CT 06492
  
  
 ---------------------------------------------------------------
 Warning -- This program may not be used in any manner that
 competes with the business of Gaussian, Inc. or will provide
 assistance to any competitor of Gaussian, Inc.  The licensee
 of this program is prohibited from giving any competitor of
 Gaussian, Inc. access to this program.  By using this program,
 the user acknowledges that Gaussian, Inc. is engaged in the
 business of creating and licensing software in the field of
 computational chemistry and represents and warrants to the
 licensee that it is not a competitor of Gaussian, Inc. and that
 it will not use this program in any manner prohibited above.
 ---------------------------------------------------------------
  

 Cite this work as:
 Gaussian 16, Revision C.02,
 M. J. Frisch, G. W. Trucks, H. B. Schlegel, G. E. Scuseria, 
 M. A. Robb, J. R. Cheeseman, G. Scalmani, V. Barone, 
 G. A. Petersson, H. Nakatsuji, X. Li, M. Caricato, A. V. Marenich, 
 J. Bloino, B. G. Janesko, R. Gomperts, B. Mennucci, H. P. Hratchian, 
 J. V. Ortiz, A. F. Izmaylov, J. L. Sonnenberg, D. Williams-Young, 
 F. Ding, F. Lipparini, F. Egidi, J. Goings, B. Peng, A. Petrone, 
 T. Henderson, D. Ranasinghe, V. G. Zakrzewski, J. Gao, N. Rega, 
 G. Zheng, W. Liang, M. Hada, M. Ehara, K. Toyota, R. Fukuda, 
 J. Hasegawa, M. Ishida, T. Nakajima, Y. Honda, O. Kitao, H. Nakai, 
 T. Vreven, K. Throssell, J. A. Montgomery, Jr., J. E. Peralta, 
 F. Ogliaro, M. J. Bearpark, J. J. Heyd, E. N. Brothers, K. N. Kudin, 
 V. N. Staroverov, T. A. Keith, R. Kobayashi, J. Normand, 
 K. Raghavachari, A. P. Rendell, J. C. Burant, S. S. Iyengar, 
 J. Tomasi, M. Cossi, J. M. Millam, M. Klene, C. Adamo, R. Cammi, 
 J. W. Ochterski, R. L. Martin, K. Morokuma, O. Farkas, 
 J. B. Foresman, and D. J. Fox, Gaussian, Inc., Wallingford CT, 2019.
 
 ******************************************
 Gaussian 16:  ES64L-G16RevC.02  7-Dec-2021
                24-Jun-2026 
 ******************************************
 %chk=Mg_THF.chk
 %nprocshared=8
 Will use up to    8 processors via shared memory.
 %mem=14GB
 ----------------------------------------------------------------------
 #p B3LYP/def2SVP EmpiricalDispersion=GD3BJ opt SCRF=(SMD,Solvent=Tetra
 hydrofuran) int=ultrafine
 ----------------------------------------------------------------------
 1/18=20,19=15,26=6,38=1/1,3;
 2/9=110,12=2,17=6,18=5,40=1/2;
 3/5=43,7=101,11=2,25=1,30=1,70=32201,71=1,72=20,74=-5,75=-5,124=41/1,2,3;
 4//1;
 5/5=2,38=5,53=20/2;
 6/7=2,8=2,9=2,10=2,28=1/1;
 7//1,2,3,16;
 1/18=20,19=15,26=6/3(2);
 2/9=110/2;
 99//99;
 2/9=110/2;
 3/5=43,7=101,11=2,25=1,30=1,70=32205,71=1,72=20,74=-5,75=-5,124=41/1,2,3;
 4/5=5,16=3,69=1/1;
 5/5=2,38=5,53=20/2;
 7//1,2,3,16;
 1/18=20,19=15,26=6/3(-5);
 2/9=110/2;
 6/7=2,8=2,9=2,10=2,19=2,28=1/1;
 99/9=1/99;
 Leave Link    1 at Wed Jun 24 00:00:40 2026, MaxMem=  1879048192 cpu:               3.7 elap:               0.1
 (Enter /CH/g16/l101.exe)
 ------
 Mg_THF
 ------
 Symbolic Z-matrix:
 Charge =  2 Multiplicity = 1
 Mg                    0.        0.       -2.05 
 O                     0.        0.        0. 
 C                     1.18      0.        0.74 
 C                     0.74      0.        2.13 
 C                    -0.74      0.        2.13 
 C                    -1.18      0.        0.74 
 H                     1.78      0.89      0.5 
 H                     1.78     -0.89      0.5 
 H                     1.2       0.89      2.7 
 H                     1.2      -0.89      2.7 
 H                    -1.2       0.89      2.7 
 H                    -1.2      -0.89      2.7 
 H                    -1.78      0.89      0.5 
 H                    -1.78     -0.89      0.5 
 
 ITRead=  0  0  0  0  0  0  0  0  0  0  0  0  0  0
 MicOpt= -1 -1 -1 -1 -1 -1 -1 -1 -1 -1 -1 -1 -1 -1
 NAtoms=     14 NQM=       14 NQMF=       0 NMMI=      0 NMMIF=      0
                NMic=       0 NMicF=      0.
                    Isotopes and Nuclear Properties:
 (Nuclear quadrupole moments (NQMom) in fm**2, nuclear magnetic moments (NMagM)
  in nuclear magnetons)

  Atom         1           2           3           4           5           6           7           8           9          10
 IAtWgt=          24          16          12          12          12          12           1           1           1           1
 AtmWgt=  23.9850450  15.9949146  12.0000000  12.0000000  12.0000000  12.0000000   1.0078250   1.0078250   1.0078250   1.0078250
 NucSpn=           0           0           0           0           0           0           1           1           1           1
 AtZEff=  -0.0000000  -0.0000000  -0.0000000  -0.0000000  -0.0000000  -0.0000000  -0.0000000  -0.0000000  -0.0000000  -0.0000000
 NQMom=    0.0000000   0.0000000   0.0000000   0.0000000   0.0000000   0.0000000   0.0000000   0.0000000   0.0000000   0.0000000
 NMagM=    0.0000000   0.0000000   0.0000000   0.0000000   0.0000000   0.0000000   2.7928460   2.7928460   2.7928460   2.7928460
 AtZNuc=  12.0000000   8.0000000   6.0000000   6.0000000   6.0000000   6.0000000   1.0000000   1.0000000   1.0000000   1.0000000

  Atom        11          12          13          14
 IAtWgt=           1           1           1           1
 AtmWgt=   1.0078250   1.0078250   1.0078250   1.0078250
 NucSpn=           1           1           1           1
 AtZEff=  -0.0000000  -0.0000000  -0.0000000  -0.0000000
 NQMom=    0.0000000   0.0000000   0.0000000   0.0000000
 NMagM=    2.7928460   2.7928460   2.7928460   2.7928460
 AtZNuc=   1.0000000   1.0000000   1.0000000   1.0000000
 Leave Link  101 at Wed Jun 24 00:00:41 2026, MaxMem=  1879048192 cpu:               0.4 elap:               0.4
 (Enter /CH/g16/l103.exe)

 GradGradGradGradGradGradGradGradGradGradGradGradGradGradGradGradGradGrad
 Berny optimization.
 Initialization pass.
                           ----------------------------
                           !    Initial Parameters    !
                           ! (Angstroms and Degrees)  !
 --------------------------                            --------------------------
 ! Name  Definition              Value          Derivative Info.                !
 --------------------------------------------------------------------------------
 ! R1    R(1,2)                  2.05           estimate D2E/DX2                !
 ! R2    R(2,3)                  1.3928         estimate D2E/DX2                !
 ! R3    R(2,6)                  1.3928         estimate D2E/DX2                !
 ! R4    R(3,4)                  1.458          estimate D2E/DX2                !
 ! R5    R(3,7)                  1.0999         estimate D2E/DX2                !
 ! R6    R(3,8)                  1.0999         estimate D2E/DX2                !
 ! R7    R(4,5)                  1.48           estimate D2E/DX2                !
 ! R8    R(4,9)                  1.1526         estimate D2E/DX2                !
 ! R9    R(4,10)                 1.1526         estimate D2E/DX2                !
 ! R10   R(5,6)                  1.458          estimate D2E/DX2                !
 ! R11   R(5,11)                 1.1526         estimate D2E/DX2                !
 ! R12   R(5,12)                 1.1526         estimate D2E/DX2                !
 ! R13   R(6,13)                 1.0999         estimate D2E/DX2                !
 ! R14   R(6,14)                 1.0999         estimate D2E/DX2                !
 ! A1    A(1,2,3)              122.0926         estimate D2E/DX2                !
 ! A2    A(1,2,6)              122.0926         estimate D2E/DX2                !
 ! A3    A(3,2,6)              115.8148         estimate D2E/DX2                !
 ! A4    A(2,3,4)              104.5276         estimate D2E/DX2                !
 ! A5    A(2,3,7)              110.2569         estimate D2E/DX2                !
 ! A6    A(2,3,8)              110.2569         estimate D2E/DX2                !
 ! A7    A(4,3,7)              111.8802         estimate D2E/DX2                !
 ! A8    A(4,3,8)              111.8802         estimate D2E/DX2                !
 ! A9    A(7,3,8)              108.034          estimate D2E/DX2                !
 ! A10   A(3,4,5)              107.565          estimate D2E/DX2                !
 ! A11   A(3,4,9)              110.5496         estimate D2E/DX2                !
 ! A12   A(3,4,10)             110.5496         estimate D2E/DX2                !
 ! A13   A(5,4,9)              113.5207         estimate D2E/DX2                !
 ! A14   A(5,4,10)             113.5207         estimate D2E/DX2                !
 ! A15   A(9,4,10)             101.0919         estimate D2E/DX2                !
 ! A16   A(4,5,6)              107.565          estimate D2E/DX2                !
 ! A17   A(4,5,11)             113.5207         estimate D2E/DX2                !
 ! A18   A(4,5,12)             113.5207         estimate D2E/DX2                !
 ! A19   A(6,5,11)             110.5496         estimate D2E/DX2                !
 ! A20   A(6,5,12)             110.5496         estimate D2E/DX2                !
 ! A21   A(11,5,12)            101.0919         estimate D2E/DX2                !
 ! A22   A(2,6,5)              104.5276         estimate D2E/DX2                !
 ! A23   A(2,6,13)             110.2569         estimate D2E/DX2                !
 ! A24   A(2,6,14)             110.2569         estimate D2E/DX2                !
 ! A25   A(5,6,13)             111.8802         estimate D2E/DX2                !
 ! A26   A(5,6,14)             111.8802         estimate D2E/DX2                !
 ! A27   A(13,6,14)            108.034          estimate D2E/DX2                !
 ! D1    D(1,2,3,4)            180.0            estimate D2E/DX2                !
 ! D2    D(1,2,3,7)             59.6029         estimate D2E/DX2                !
 ! D3    D(1,2,3,8)            -59.6029         estimate D2E/DX2                !
 ! D4    D(6,2,3,4)              0.0            estimate D2E/DX2                !
 ! D5    D(6,2,3,7)           -120.3971         estimate D2E/DX2                !
 ! D6    D(6,2,3,8)            120.3971         estimate D2E/DX2                !
 ! D7    D(1,2,6,5)            180.0            estimate D2E/DX2                !
 ! D8    D(1,2,6,13)           -59.6029         estimate D2E/DX2                !
 ! D9    D(1,2,6,14)            59.6029         estimate D2E/DX2                !
 ! D10   D(3,2,6,5)              0.0            estimate D2E/DX2                !
 ! D11   D(3,2,6,13)           120.3971         estimate D2E/DX2                !
 ! D12   D(3,2,6,14)          -120.3971         estimate D2E/DX2                !
 ! D13   D(2,3,4,5)              0.0            estimate D2E/DX2                !
 ! D14   D(2,3,4,9)           -124.4515         estimate D2E/DX2                !
 ! D15   D(2,3,4,10)           124.4515         estimate D2E/DX2                !
 ! D16   D(7,3,4,5)            119.3074         estimate D2E/DX2                !
 ! D17   D(7,3,4,9)             -5.1441         estimate D2E/DX2                !
 ! D18   D(7,3,4,10)          -116.2411         estimate D2E/DX2                !
 ! D19   D(8,3,4,5)           -119.3074         estimate D2E/DX2                !
 ! D20   D(8,3,4,9)            116.2411         estimate D2E/DX2                !
 ! D21   D(8,3,4,10)             5.1441         estimate D2E/DX2                !
 ! D22   D(3,4,5,6)              0.0            estimate D2E/DX2                !
 ! D23   D(3,4,5,11)          -122.6375         estimate D2E/DX2                !
 ! D24   D(3,4,5,12)           122.6375         estimate D2E/DX2                !
 ! D25   D(9,4,5,6)            122.6375         estimate D2E/DX2                !
 ! D26   D(9,4,5,11)             0.0            estimate D2E/DX2                !
 ! D27   D(9,4,5,12)          -114.725          estimate D2E/DX2                !
 ! D28   D(10,4,5,6)          -122.6375         estimate D2E/DX2                !
 ! D29   D(10,4,5,11)          114.725          estimate D2E/DX2                !
 ! D30   D(10,4,5,12)            0.0            estimate D2E/DX2                !
 ! D31   D(4,5,6,2)              0.0            estimate D2E/DX2                !
 ! D32   D(4,5,6,13)          -119.3074         estimate D2E/DX2                !
 ! D33   D(4,5,6,14)           119.3074         estimate D2E/DX2                !
 ! D34   D(11,5,6,2)           124.4515         estimate D2E/DX2                !
 ! D35   D(11,5,6,13)            5.1441         estimate D2E/DX2                !
 ! D36   D(11,5,6,14)         -116.2411         estimate D2E/DX2                !
 ! D37   D(12,5,6,2)          -124.4515         estimate D2E/DX2                !
 ! D38   D(12,5,6,13)          116.2411         estimate D2E/DX2                !
 ! D39   D(12,5,6,14)           -5.1441         estimate D2E/DX2                !
 --------------------------------------------------------------------------------
 Trust Radius=3.00D-01 FncErr=5.00D-06 GrdErr=5.00D-06 EigMax=2.50D+02 EigMin=1.00D-04
 Number of steps in this run=     90 maximum allowed number of steps=    100.
 GradGradGradGradGradGradGradGradGradGradGradGradGradGradGradGradGradGrad

 Leave Link  103 at Wed Jun 24 00:00:41 2026, MaxMem=  1879048192 cpu:               0.0 elap:               0.0
 (Enter /CH/g16/l202.exe)
                          Input orientation:                          
 ---------------------------------------------------------------------
 Center     Atomic      Atomic             Coordinates (Angstroms)
 Number     Number       Type             X           Y           Z
 ---------------------------------------------------------------------
      1         12           0        0.000000    0.000000   -2.050000
      2          8           0        0.000000    0.000000    0.000000
      3          6           0        1.180000    0.000000    0.740000
      4          6           0        0.740000    0.000000    2.130000
      5          6           0       -0.740000    0.000000    2.130000
      6          6           0       -1.180000    0.000000    0.740000
      7          1           0        1.780000    0.890000    0.500000
      8          1           0        1.780000   -0.890000    0.500000
      9          1           0        1.200000    0.890000    2.700000
     10          1           0        1.200000   -0.890000    2.700000
     11          1           0       -1.200000    0.890000    2.700000
     12          1           0       -1.200000   -0.890000    2.700000
     13          1           0       -1.780000    0.890000    0.500000
     14          1           0       -1.780000   -0.890000    0.500000
 ---------------------------------------------------------------------
                    Distance matrix (angstroms):
                    1          2          3          4          5
     1  Mg   0.000000
     2  O    2.050000   0.000000
     3  C    3.029274   1.392839   0.000000
     4  C    4.244997   2.254884   1.457978   0.000000
     5  C    4.244997   2.254884   2.370338   1.480000   0.000000
     6  C    3.029274   1.392839   2.360000   2.370338   1.457978
     7  H    3.234656   2.051950   1.099864   2.128521   3.130399
     8  H    3.234656   2.051950   1.099864   2.128521   3.130399
     9  H    4.979418   3.085790   2.152696   1.152649   2.209208
    10  H    4.979418   3.085790   2.152696   1.152649   2.209208
    11  H    4.979418   3.085790   3.209065   2.209208   1.152649
    12  H    4.979418   3.085790   3.209065   2.209208   1.152649
    13  H    3.234656   2.051950   3.100210   3.130399   2.128521
    14  H    3.234656   2.051950   3.100210   3.130399   2.128521
                    6          7          8          9         10
     6  C    0.000000
     7  H    3.100210   0.000000
     8  H    3.100210   1.780000   0.000000
     9  H    3.209065   2.275170   2.888737   0.000000
    10  H    3.209065   2.888737   2.275170   1.780000   0.000000
    11  H    2.152696   3.704106   4.109599   2.400000   2.988043
    12  H    2.152696   4.109599   3.704106   2.988043   2.400000
    13  H    1.099864   3.560000   3.980201   3.704106   4.109599
    14  H    1.099864   3.980201   3.560000   4.109599   3.704106
                   11         12         13         14
    11  H    0.000000
    12  H    1.780000   0.000000
    13  H    2.275170   2.888737   0.000000
    14  H    2.888737   2.275170   1.780000   0.000000
 Stoichiometry    C4H8MgO(2+)
 Framework group  C2V[C2(OMg),SGV(C4),X(H8)]
 Deg. of freedom    11
 Full point group                 C2V     NOp   4
 Largest Abelian subgroup         C2V     NOp   4
 Largest concise Abelian subgroup C2V     NOp   4
                         Standard orientation:                         
 ---------------------------------------------------------------------
 Center     Atomic      Atomic             Coordinates (Angstroms)
 Number     Number       Type             X           Y           Z
 ---------------------------------------------------------------------
      1         12           0       -0.000000    0.000000    2.485385
      2          8           0       -0.000000    0.000000    0.435385
      3          6           0       -0.000000    1.180000   -0.304615
      4          6           0       -0.000000    0.740000   -1.694615
      5          6           0       -0.000000   -0.740000   -1.694615
      6          6           0       -0.000000   -1.180000   -0.304615
      7          1           0        0.890000    1.780000   -0.064615
      8          1           0       -0.890000    1.780000   -0.064615
      9          1           0        0.890000    1.200000   -2.264615
     10          1           0       -0.890000    1.200000   -2.264615
     11          1           0        0.890000   -1.200000   -2.264615
     12          1           0       -0.890000   -1.200000   -2.264615
     13          1           0        0.890000   -1.780000   -0.064615
     14          1           0       -0.890000   -1.780000   -0.064615
 ---------------------------------------------------------------------
 Rotational constants (GHZ):           7.0658435           2.0334345           1.6446528
 Leave Link  202 at Wed Jun 24 00:00:41 2026, MaxMem=  1879048192 cpu:               0.0 elap:               0.0
 (Enter /CH/g16/l301.exe)
 Standard basis: def2SVP (5D, 7F)
 Ernie: Thresh=  0.10000D-02 Tol=  0.10000D-05 Strict=F.
 There are    50 symmetry adapted cartesian basis functions of A1  symmetry.
 There are    20 symmetry adapted cartesian basis functions of A2  symmetry.
 There are    25 symmetry adapted cartesian basis functions of B1  symmetry.
 There are    39 symmetry adapted cartesian basis functions of B2  symmetry.
 There are    46 symmetry adapted basis functions of A1  symmetry.
 There are    20 symmetry adapted basis functions of A2  symmetry.
 There are    25 symmetry adapted basis functions of B1  symmetry.
 There are    37 symmetry adapted basis functions of B2  symmetry.
   128 basis functions,   218 primitive gaussians,   134 cartesian basis functions
    25 alpha electrons       25 beta electrons
       nuclear repulsion energy       274.3227579526 Hartrees.
 IExCor=  402 DFT=T Ex+Corr=B3LYP ExCW=0 ScaHFX=  0.200000
 ScaDFX=  0.800000  0.720000  1.000000  0.810000 ScalE2=  1.000000  1.000000
 IRadAn=      5 IRanWt=     -1 IRanGd=            0 ICorTp=0 IEmpDi=141
 NAtoms=   14 NActive=   14 NUniq=    6 SFac= 4.00D+00 NAtFMM=   60 NAOKFM=F Big=F
 Integral buffers will be    131072 words long.
 Raffenetti 2 integral format.
 Two-electron integral symmetry is turned on.
 R6Disp:  Grimme-D3(BJ) Dispersion energy=       -0.0221626333 Hartrees.
 Nuclear repulsion after empirical dispersion term =      274.3005953193 Hartrees.
 ------------------------------------------------------------------------------
 Polarizable Continuum Model (PCM)
 =================================
 Model                : PCM.
 Atomic radii         : SMD-Coulomb.
 Polarization charges : Total charges.
 Charge compensation  : None.
 Solution method      : On-the-fly selection.
 Cavity type          : VdW (van der Waals Surface) (Alpha=1.000).
 Cavity algorithm     : GePol (No added spheres)
                        Default sphere list used, NSphG=   14.
                        Lebedev-Laikov grids with approx.  5.0 points / Ang**2.
                        Smoothing algorithm: York/Karplus (Gamma=1.0000).
                        Polarization charges: spherical gaussians, with
                                              point-specific exponents (IZeta= 3).
                        Self-potential: point-specific (ISelfS= 7).
                        Self-field    : sphere-specific E.n sum rule (ISelfD= 2).
 1st derivatives      : Analytical E(r).r(x)/FMM algorithm (CHGder, D1EAlg=3).
                        Cavity 1st derivative terms included.
 Solvent              : TetraHydroFuran, Eps=   7.425700 Eps(inf)=   1.974025
 ------------------------------------------------------------------------------
 Spheres list:
 ISph  on   Nord     Re0    Alpha      Xe            Ye            Ze
    1  Mg      1    1.7300  1.000     -0.000000      0.000000      2.485385
    2   O      2    2.2940  1.000      0.000000     -0.000000      0.435385
    3   C      3    1.8500  1.000     -0.000000      1.180000     -0.304615
    4   C      4    1.8500  1.000     -0.000000      0.740000     -1.694615
    5   C      5    1.8500  1.000     -0.000000     -0.740000     -1.694615
    6   C      6    1.8500  1.000     -0.000000     -1.180000     -0.304615
    7   H      7    1.2000  1.000      0.890000      1.780000     -0.064615
    8   H      8    1.2000  1.000     -0.890000      1.780000     -0.064615
    9   H      9    1.2000  1.000      0.890000      1.200000     -2.264615
   10   H     10    1.2000  1.000     -0.890000      1.200000     -2.264615
   11   H     11    1.2000  1.000      0.890000     -1.200000     -2.264615
   12   H     12    1.2000  1.000     -0.890000     -1.200000     -2.264615
   13   H     13    1.2000  1.000      0.890000     -1.780000     -0.064615
   14   H     14    1.2000  1.000     -0.890000     -1.780000     -0.064615
 ------------------------------------------------------------------------------
 GePol: Number of generator spheres                  =      14
 GePol: Total number of spheres                      =      14
 GePol: Number of exposed spheres                    =      14 (100.00%)
 GePol: Number of points                             =    1077
 GePol: Average weight of points                     =       0.12
 GePol: Minimum weight of points                     =   0.11D-07
 GePol: Maximum weight of points                     =    0.21501
 GePol: Number of points with low weight             =      64
 GePol: Fraction of low-weight points (<1% of avg)   =       5.94%
 GePol: Cavity surface area                          =    128.568 Ang**2
 GePol: Cavity volume                                =    109.358 Ang**3
 ------------------------------------------------------------------------------
 Atomic radii for non-electrostatic terms: SMD-CDS.
 ------------------------------------------------------------------------------
 PCM non-electrostatic energy =        -0.0013423951 Hartrees.
 Nuclear repulsion after PCM non-electrostatic terms =      274.2992529242 Hartrees.
 Leave Link  301 at Wed Jun 24 00:00:41 2026, MaxMem=  1879048192 cpu:               0.1 elap:               0.0
 (Enter /CH/g16/l302.exe)
 NPDir=0 NMtPBC=     1 NCelOv=     1 NCel=       1 NClECP=     1 NCelD=      1
         NCelK=      1 NCelE2=     1 NClLst=     1 CellRange=     0.0.
 One-electron integrals computed using PRISM.
 One-electron integral symmetry used in STVInt
   4 Symmetry operations used in ECPInt.
 ECPInt:  NShTT=    1953 NPrTT=    7133 LenC2=    1945 LenP2D=    5935.
 LDataN:  DoStor=T MaxTD1= 4 Len=   56
 NBasis=   128 RedAO= T EigKep=  7.96D-04  NBF=    46    20    25    37
 NBsUse=   128 1.00D-06 EigRej= -1.00D+00 NBFU=    46    20    25    37
 Precomputing XC quadrature grid using
 IXCGrd= 4 IRadAn=           5 IRanWt=          -1 IRanGd=           0 AccXCQ= 0.00D+00.
 Generated NRdTot=       0 NPtTot=           0 NUsed=           0 NTot=          32
 NSgBfM=   134   134   134   134   134 MxSgAt=    14 MxSgA2=    14.
 Leave Link  302 at Wed Jun 24 00:00:41 2026, MaxMem=  1879048192 cpu:               0.4 elap:               0.1
 (Enter /CH/g16/l303.exe)
 DipDrv:  MaxL=1.
 Leave Link  303 at Wed Jun 24 00:00:41 2026, MaxMem=  1879048192 cpu:               0.0 elap:               0.0
 (Enter /CH/g16/l401.exe)
 ExpMin= 3.36D-02 ExpMax= 4.95D+03 ExpMxC= 7.45D+02 IAcc=3 IRadAn=         5 AccDes= 0.00D+00
 Harris functional with IExCor=  402 and IRadAn=       5 diagonalized for initial guess.
 HarFok:  IExCor=  402 AccDes= 0.00D+00 IRadAn=         5 IDoV= 1 UseB2=F ITyADJ=14
 ICtDFT=  3500011 ScaDFX=  1.000000  1.000000  1.000000  1.000000
 FoFCou: FMM=F IPFlag=           0 FMFlag=      100000 FMFlg1=           0
         NFxFlg=           0 DoJE=T BraDBF=F KetDBF=T FulRan=T
         wScrn=  0.000000 ICntrl=       500 IOpCl=  0 I1Cent=   200000004 NGrid=           0
         NMat0=    1 NMatS0=      1 NMatT0=    0 NMatD0=    1 NMtDS0=    0 NMtDT0=    0
 Petite list used in FoFCou.
 Harris En= -431.959046982213    
 JPrj=0 DoOrth=F DoCkMO=F.
 Initial guess orbital symmetries:
       Occupied  (A1) (A1) (B2) (A1) (B2) (A1) (A1) (A1) (B2) (B1)
                 (A1) (A1) (B2) (B2) (A1) (A1) (B1) (B2) (A2) (A1)
                 (B1) (B2) (A1) (A2) (B1)
       Virtual   (A1) (B1) (A1) (B2) (B1) (A1) (B2) (A1) (B2) (A2)
                 (A1) (B2) (B1) (A1) (A1) (A2) (B2) (A1) (A2) (B1)
                 (B2) (B2) (B1) (B2) (A1) (B1) (A1) (A1) (A1) (B2)
                 (A2) (A1) (B2) (B1) (A1) (B2) (A2) (B2) (B1) (A1)
                 (B2) (B1) (A1) (A2) (A1) (B2) (A2) (B2) (A1) (B1)
                 (A1) (B2) (A2) (B2) (B1) (A2) (B1) (A1) (A1) (B2)
                 (B1) (A1) (A2) (B1) (A1) (A2) (B1) (B2) (A1) (B1)
                 (B2) (A1) (A2) (B2) (B1) (A2) (B2) (A1) (A2) (A1)
                 (A1) (B2) (B2) (B2) (A1) (B1) (A1) (A2) (A1) (B2)
                 (B1) (B2) (B2) (B1) (A1) (A2) (B2) (A1) (B1) (A2)
                 (A2) (A1) (B2)
 The electronic state of the initial guess is 1-A1.
 Leave Link  401 at Wed Jun 24 00:00:41 2026, MaxMem=  1879048192 cpu:               0.7 elap:               0.1
 (Enter /CH/g16/l502.exe)
 Keep R1 ints in memory in symmetry-blocked form, NReq=42711890.
 FoFCou: FMM=F IPFlag=           0 FMFlag=           0 FMFlg1=           0
         NFxFlg=           0 DoJE=F BraDBF=F KetDBF=F FulRan=T
         wScrn=  0.000000 ICntrl=       600 IOpCl=  0 I1Cent=           0 NGrid=           0
         NMat0=    1 NMatS0=   8256 NMatT0=    0 NMatD0=    1 NMtDS0=    0 NMtDT0=    0
 Petite list used in FoFCou.
 Closed shell SCF:
 Using DIIS extrapolation, IDIIS=  1040.
 NGot=  1879048192 LenX=  1870383699 LenY=  1870365302
 Requested convergence on RMS density matrix=1.00D-08 within 128 cycles.
 Requested convergence on MAX density matrix=1.00D-06.
 Requested convergence on             energy=1.00D-06.
 No special actions if energy rises.

 Cycle   1  Pass 1  IDiag  1:
 Inv3:  Mode=1 IEnd=     3479787.
 Iteration    1 A*A^-1 deviation from unit magnitude is 3.00D-15 for    967.
 Iteration    1 A*A^-1 deviation from orthogonality  is 2.59D-15 for    619    309.
 Iteration    1 A^-1*A deviation from unit magnitude is 2.89D-15 for    330.
 Iteration    1 A^-1*A deviation from orthogonality  is 4.41D-15 for    643    619.
 E= -431.906783215377    
 DIIS: error= 2.96D-02 at cycle   1 NSaved=   1.
 NSaved= 1 IEnMin= 1 EnMin= -431.906783215377     IErMin= 1 ErrMin= 2.96D-02
 ErrMax= 2.96D-02  0.00D+00 EMaxC= 1.00D-01 BMatC= 1.09D-01 BMatP= 1.09D-01
 IDIUse=3 WtCom= 7.04D-01 WtEn= 2.96D-01
 Coeff-Com:  0.100D+01
 Coeff-En:   0.100D+01
 Coeff:      0.100D+01
 Gap=     0.111 Goal=   None    Shift=    0.000
 GapD=    0.111 DampG=1.000 DampE=0.500 DampFc=0.5000 IDamp=-1.
 Damping current iteration by 5.00D-01
 RMSDP=5.96D-03 MaxDP=1.34D-01              OVMax= 1.53D-01

 Cycle   2  Pass 1  IDiag  1:
 E= -431.957126062986     Delta-E=       -0.050342847608 Rises=F Damp=T
 DIIS: error= 8.86D-03 at cycle   2 NSaved=   2.
 NSaved= 2 IEnMin= 2 EnMin= -431.957126062986     IErMin= 2 ErrMin= 8.86D-03
 ErrMax= 8.86D-03  0.00D+00 EMaxC= 1.00D-01 BMatC= 8.49D-03 BMatP= 1.09D-01
 IDIUse=3 WtCom= 9.11D-01 WtEn= 8.86D-02
 Coeff-Com:  0.664D-01 0.934D+00
 Coeff-En:   0.123D+00 0.877D+00
 Coeff:      0.714D-01 0.929D+00
 Gap=     0.184 Goal=   None    Shift=    0.000
 RMSDP=1.73D-03 MaxDP=2.54D-02 DE=-5.03D-02 OVMax= 9.60D-02

 Cycle   3  Pass 1  IDiag  1:
 E= -432.022404397936     Delta-E=       -0.065278334951 Rises=F Damp=F
 DIIS: error= 5.57D-03 at cycle   3 NSaved=   3.
 NSaved= 3 IEnMin= 3 EnMin= -432.022404397936     IErMin= 3 ErrMin= 5.57D-03
 ErrMax= 5.57D-03  0.00D+00 EMaxC= 1.00D-01 BMatC= 3.26D-03 BMatP= 8.49D-03
 IDIUse=3 WtCom= 9.44D-01 WtEn= 5.57D-02
 Coeff-Com: -0.429D-01 0.367D+00 0.676D+00
 Coeff-En:   0.000D+00 0.000D+00 0.100D+01
 Coeff:     -0.406D-01 0.347D+00 0.694D+00
 Gap=     0.195 Goal=   None    Shift=    0.000
 RMSDP=4.40D-04 MaxDP=1.08D-02 DE=-6.53D-02 OVMax= 1.37D-02

 Cycle   4  Pass 1  IDiag  1:
 E= -432.024829300074     Delta-E=       -0.002424902138 Rises=F Damp=F
 DIIS: error= 2.16D-03 at cycle   4 NSaved=   4.
 NSaved= 4 IEnMin= 4 EnMin= -432.024829300074     IErMin= 4 ErrMin= 2.16D-03
 ErrMax= 2.16D-03  0.00D+00 EMaxC= 1.00D-01 BMatC= 5.35D-04 BMatP= 3.26D-03
 IDIUse=3 WtCom= 9.78D-01 WtEn= 2.16D-02
 Coeff-Com: -0.241D-01 0.155D+00 0.366D+00 0.503D+00
 Coeff-En:   0.000D+00 0.000D+00 0.000D+00 0.100D+01
 Coeff:     -0.236D-01 0.152D+00 0.358D+00 0.514D+00
 Gap=     0.193 Goal=   None    Shift=    0.000
 RMSDP=1.49D-04 MaxDP=5.59D-03 DE=-2.42D-03 OVMax= 4.98D-03

 Cycle   5  Pass 1  IDiag  1:
 E= -432.025188684311     Delta-E=       -0.000359384237 Rises=F Damp=F
 DIIS: error= 6.41D-04 at cycle   5 NSaved=   5.
 NSaved= 5 IEnMin= 5 EnMin= -432.025188684311     IErMin= 5 ErrMin= 6.41D-04
 ErrMax= 6.41D-04  0.00D+00 EMaxC= 1.00D-01 BMatC= 4.56D-05 BMatP= 5.35D-04
 IDIUse=3 WtCom= 9.94D-01 WtEn= 6.41D-03
 Coeff-Com: -0.597D-02 0.155D-01 0.600D-01 0.251D+00 0.679D+00
 Coeff-En:   0.000D+00 0.000D+00 0.000D+00 0.326D-01 0.967D+00
 Coeff:     -0.593D-02 0.154D-01 0.596D-01 0.250D+00 0.681D+00
 Gap=     0.193 Goal=   None    Shift=    0.000
 RMSDP=3.84D-05 MaxDP=1.38D-03 DE=-3.59D-04 OVMax= 1.15D-03

 Cycle   6  Pass 1  IDiag  1:
 E= -432.025221238473     Delta-E=       -0.000032554162 Rises=F Damp=F
 DIIS: error= 2.39D-05 at cycle   6 NSaved=   6.
 NSaved= 6 IEnMin= 6 EnMin= -432.025221238473     IErMin= 6 ErrMin= 2.39D-05
 ErrMax= 2.39D-05  0.00D+00 EMaxC= 1.00D-01 BMatC= 1.57D-07 BMatP= 4.56D-05
 IDIUse=1 WtCom= 1.00D+00 WtEn= 0.00D+00
 Coeff-Com: -0.643D-03-0.207D-03 0.358D-02 0.364D-01 0.136D+00 0.825D+00
 Coeff:     -0.643D-03-0.207D-03 0.358D-02 0.364D-01 0.136D+00 0.825D+00
 Gap=     0.193 Goal=   None    Shift=    0.000
 RMSDP=3.82D-06 MaxDP=1.00D-04 DE=-3.26D-05 OVMax= 1.04D-04

 Cycle   7  Pass 1  IDiag  1:
 E= -432.025221349274     Delta-E=       -0.000000110801 Rises=F Damp=F
 DIIS: error= 1.42D-05 at cycle   7 NSaved=   7.
 NSaved= 7 IEnMin= 7 EnMin= -432.025221349274     IErMin= 7 ErrMin= 1.42D-05
 ErrMax= 1.42D-05  0.00D+00 EMaxC= 1.00D-01 BMatC= 2.86D-08 BMatP= 1.57D-07
 IDIUse=1 WtCom= 1.00D+00 WtEn= 0.00D+00
 Coeff-Com: -0.149D-03-0.490D-03 0.115D-03 0.110D-01 0.480D-01 0.387D+00
 Coeff-Com:  0.554D+00
 Coeff:     -0.149D-03-0.490D-03 0.115D-03 0.110D-01 0.480D-01 0.387D+00
 Coeff:      0.554D+00
 Gap=     0.193 Goal=   None    Shift=    0.000
 RMSDP=1.33D-06 MaxDP=4.11D-05 DE=-1.11D-07 OVMax= 4.25D-05

 Cycle   8  Pass 1  IDiag  1:
 E= -432.025221377022     Delta-E=       -0.000000027748 Rises=F Damp=F
 DIIS: error= 1.57D-06 at cycle   8 NSaved=   8.
 NSaved= 8 IEnMin= 8 EnMin= -432.025221377022     IErMin= 8 ErrMin= 1.57D-06
 ErrMax= 1.57D-06  0.00D+00 EMaxC= 1.00D-01 BMatC= 4.63D-10 BMatP= 2.86D-08
 IDIUse=1 WtCom= 1.00D+00 WtEn= 0.00D+00
 Coeff-Com:  0.190D-04-0.531D-04-0.249D-03-0.847D-03-0.170D-02-0.968D-03
 Coeff-Com:  0.108D+00 0.895D+00
 Coeff:      0.190D-04-0.531D-04-0.249D-03-0.847D-03-0.170D-02-0.968D-03
 Coeff:      0.108D+00 0.895D+00
 Gap=     0.193 Goal=   None    Shift=    0.000
 RMSDP=1.95D-07 MaxDP=4.63D-06 DE=-2.77D-08 OVMax= 5.33D-06

 Cycle   9  Pass 1  IDiag  1:
 E= -432.025221377479     Delta-E=       -0.000000000457 Rises=F Damp=F
 DIIS: error= 6.02D-08 at cycle   9 NSaved=   9.
 NSaved= 9 IEnMin= 9 EnMin= -432.025221377479     IErMin= 9 ErrMin= 6.02D-08
 ErrMax= 6.02D-08  0.00D+00 EMaxC= 1.00D-01 BMatC= 9.87D-13 BMatP= 4.63D-10
 IDIUse=1 WtCom= 1.00D+00 WtEn= 0.00D+00
 Coeff-Com:  0.257D-05 0.173D-05-0.246D-04-0.184D-03-0.660D-03-0.431D-02
 Coeff-Com:  0.342D-02 0.580D-01 0.944D+00
 Coeff:      0.257D-05 0.173D-05-0.246D-04-0.184D-03-0.660D-03-0.431D-02
 Coeff:      0.342D-02 0.580D-01 0.944D+00
 Gap=     0.193 Goal=   None    Shift=    0.000
 RMSDP=1.29D-08 MaxDP=1.78D-07 DE=-4.57D-10 OVMax= 3.59D-07

 Cycle  10  Pass 1  IDiag  1:
 E= -432.025221377475     Delta-E=        0.000000000003 Rises=F Damp=F
 DIIS: error= 1.46D-08 at cycle  10 NSaved=  10.
 NSaved=10 IEnMin= 9 EnMin= -432.025221377479     IErMin=10 ErrMin= 1.46D-08
 ErrMax= 1.46D-08  0.00D+00 EMaxC= 1.00D-01 BMatC= 3.17D-14 BMatP= 9.87D-13
 IDIUse=1 WtCom= 1.00D+00 WtEn= 0.00D+00
 Coeff-Com: -0.290D-06 0.101D-05 0.838D-06 0.108D-05-0.229D-04-0.221D-03
 Coeff-Com: -0.879D-03-0.669D-02 0.798D-01 0.928D+00
 Coeff:     -0.290D-06 0.101D-05 0.838D-06 0.108D-05-0.229D-04-0.221D-03
 Coeff:     -0.879D-03-0.669D-02 0.798D-01 0.928D+00
 Gap=     0.193 Goal=   None    Shift=    0.000
 RMSDP=2.25D-09 MaxDP=3.17D-08 DE= 3.24D-12 OVMax= 6.66D-08

 Error on total polarization charges =  0.02589
 SCF Done:  E(RB3LYP) =  -432.025221377     A.U. after   10 cycles
            NFock= 10  Conv=0.22D-08     -V/T= 2.0087
 KE= 4.283131668759D+02 PE=-1.545767043858D+03 EE= 4.111294026802D+02
 SMD-CDS (non-electrostatic) energy       (kcal/mol) =      -0.84
 (included in total energy above)
 Leave Link  502 at Wed Jun 24 00:00:43 2026, MaxMem=  1879048192 cpu:              13.0 elap:               1.9
 (Enter /CH/g16/l601.exe)
 Copying SCF densities to generalized density rwf, IOpCl= 0 IROHF=0.

 **********************************************************************

            Population analysis using the SCF Density.

 **********************************************************************

 Orbital symmetries:
       Occupied  (A1) (A1) (B2) (A1) (A1) (B2) (A1) (B2) (B1) (A1)
                 (A1) (A1) (B2) (B2) (A1) (A1) (B1) (B2) (A2) (B1)
                 (A1) (A1) (B2) (B1) (A2)
       Virtual   (A1) (B1) (B2) (A1) (B1) (A1) (A1) (B2) (A2) (A1)
                 (B2) (B2) (B1) (A1) (A1) (A2) (B2) (A2) (B1) (A1)
                 (B1) (B2) (A1) (B2) (A1) (B2) (B1) (A1) (B2) (A1)
                 (A2) (A1) (B2) (B1) (A1) (B2) (B1) (B2) (A2) (A1)
                 (A1) (B2) (B1) (A2) (A1) (B2) (A2) (B2) (A1) (B1)
                 (A1) (B2) (B2) (A2) (B1) (A2) (B1) (A1) (A1) (B2)
                 (B1) (A1) (A2) (B1) (A2) (A1) (B2) (B1) (A1) (B1)
                 (A1) (A2) (B2) (B2) (B1) (A2) (B2) (A1) (A2) (A1)
                 (A1) (B2) (B2) (B2) (A1) (B1) (A1) (A2) (A1) (B2)
                 (B1) (B2) (B2) (B1) (A1) (A2) (A1) (B2) (A2) (B1)
                 (A2) (A1) (B2)
 The electronic state is 1-A1.
 Alpha  occ. eigenvalues --  -47.03397 -19.25096 -10.28292 -10.28292 -10.22223
 Alpha  occ. eigenvalues --  -10.22212  -3.29442  -2.04170  -2.04131  -2.03981
 Alpha  occ. eigenvalues --   -1.14865  -0.83542  -0.81757  -0.64827  -0.63877
 Alpha  occ. eigenvalues --   -0.58985  -0.57061  -0.50515  -0.47998  -0.44840
 Alpha  occ. eigenvalues --   -0.43120  -0.41281  -0.40854  -0.33623  -0.33121
 Alpha virt. eigenvalues --   -0.13783  -0.02793  -0.02557  -0.00382   0.03358
 Alpha virt. eigenvalues --    0.03552   0.05324   0.06504   0.07618   0.08688
 Alpha virt. eigenvalues --    0.10551   0.13047   0.13651   0.13860   0.16156
 Alpha virt. eigenvalues --    0.17067   0.18507   0.21127   0.21194   0.21554
 Alpha virt. eigenvalues --    0.23950   0.24902   0.28234   0.32035   0.33238
 Alpha virt. eigenvalues --    0.34201   0.36321   0.41094   0.45082   0.45396
 Alpha virt. eigenvalues --    0.48349   0.51418   0.52925   0.54639   0.57669
 Alpha virt. eigenvalues --    0.58131   0.61230   0.61914   0.62055   0.62524
 Alpha virt. eigenvalues --    0.65029   0.66722   0.66827   0.68384   0.68531
 Alpha virt. eigenvalues --    0.72008   0.79207   0.83525   0.86281   0.95661
 Alpha virt. eigenvalues --    0.97311   1.14296   1.31313   1.32706   1.34458
 Alpha virt. eigenvalues --    1.35207   1.35873   1.36535   1.49335   1.53978
 Alpha virt. eigenvalues --    1.57114   1.64441   1.67213   1.68287   1.70987
 Alpha virt. eigenvalues --    1.73633   1.74640   1.75199   1.78522   1.78941
 Alpha virt. eigenvalues --    1.82627   1.83528   1.84876   1.85345   1.91575
 Alpha virt. eigenvalues --    1.92543   1.94589   1.98425   2.06925   2.07802
 Alpha virt. eigenvalues --    2.13491   2.20670   2.23776   2.28014   2.29464
 Alpha virt. eigenvalues --    2.35456   2.45541   2.55151   2.58229   2.60260
 Alpha virt. eigenvalues --    2.65995   2.70887   2.76241   2.76438   2.77930
 Alpha virt. eigenvalues --    2.84061   2.93354   2.93943   3.01453   3.02037
 Alpha virt. eigenvalues --    3.06912   3.25681   3.37925
          Condensed to atoms (all electrons):
               1          2          3          4          5          6
     1  Mg  10.102428   0.196565  -0.013362   0.006021   0.006021  -0.013362
     2  O    0.196565   8.072015   0.239738  -0.046468  -0.046468   0.239738
     3  C   -0.013362   0.239738   4.444497   0.441646  -0.063476  -0.069806
     4  C    0.006021  -0.046468   0.441646   4.599369   0.451930  -0.063476
     5  C    0.006021  -0.046468  -0.063476   0.451930   4.599369   0.441646
     6  C   -0.013362   0.239738  -0.069806  -0.063476   0.441646   4.444497
     7  H   -0.000711  -0.029948   0.377458  -0.002980  -0.000257   0.006175
     8  H   -0.000711  -0.029948   0.377458  -0.002980  -0.000257   0.006175
     9  H   -0.000163   0.002085  -0.005701   0.353622  -0.006606   0.003376
    10  H   -0.000163   0.002085  -0.005701   0.353622  -0.006606   0.003376
    11  H   -0.000163   0.002085   0.003376  -0.006606   0.353622  -0.005701
    12  H   -0.000163   0.002085   0.003376  -0.006606   0.353622  -0.005701
    13  H   -0.000711  -0.029948   0.006175  -0.000257  -0.002980   0.377458
    14  H   -0.000711  -0.029948   0.006175  -0.000257  -0.002980   0.377458
               7          8          9         10         11         12
     1  Mg  -0.000711  -0.000711  -0.000163  -0.000163  -0.000163  -0.000163
     2  O   -0.029948  -0.029948   0.002085   0.002085   0.002085   0.002085
     3  C    0.377458   0.377458  -0.005701  -0.005701   0.003376   0.003376
     4  C   -0.002980  -0.002980   0.353622   0.353622  -0.006606  -0.006606
     5  C   -0.000257  -0.000257  -0.006606  -0.006606   0.353622   0.353622
     6  C    0.006175   0.006175   0.003376   0.003376  -0.005701  -0.005701
     7  H    0.647428  -0.043347  -0.020165   0.006205   0.000237  -0.000284
     8  H   -0.043347   0.647428   0.006205  -0.020165  -0.000284   0.000237
     9  H   -0.020165   0.006205   0.655544  -0.029872  -0.019466   0.005786
    10  H    0.006205  -0.020165  -0.029872   0.655544   0.005786  -0.019466
    11  H    0.000237  -0.000284  -0.019466   0.005786   0.655544  -0.029872
    12  H   -0.000284   0.000237   0.005786  -0.019466  -0.029872   0.655544
    13  H    0.001117  -0.000864   0.000237  -0.000284  -0.020165   0.006205
    14  H   -0.000864   0.001117  -0.000284   0.000237   0.006205  -0.020165
              13         14
     1  Mg  -0.000711  -0.000711
     2  O   -0.029948  -0.029948
     3  C    0.006175   0.006175
     4  C   -0.000257  -0.000257
     5  C   -0.002980  -0.002980
     6  C    0.377458   0.377458
     7  H    0.001117  -0.000864
     8  H   -0.000864   0.001117
     9  H    0.000237  -0.000284
    10  H   -0.000284   0.000237
    11  H   -0.020165   0.006205
    12  H    0.006205  -0.020165
    13  H    0.647428  -0.043347
    14  H   -0.043347   0.647428
 Mulliken charges:
               1
     1  Mg   1.719186
     2  O   -0.543668
     3  C    0.258145
     4  C   -0.076578
     5  C   -0.076578
     6  C    0.258145
     7  H    0.059936
     8  H    0.059936
     9  H    0.055402
    10  H    0.055402
    11  H    0.055402
    12  H    0.055402
    13  H    0.059936
    14  H    0.059936
 Sum of Mulliken charges =   2.00000
 Mulliken charges with hydrogens summed into heavy atoms:
               1
     1  Mg   1.719186
     2  O   -0.543668
     3  C    0.378016
     4  C    0.034225
     5  C    0.034225
     6  C    0.378016
 Electronic spatial extent (au):  <R**2>=            667.7653
 Charge=              2.0000 electrons
 Dipole moment (field-independent basis, Debye):
    X=             -0.0000    Y=             -0.0000    Z=             18.9287  Tot=             18.9287
 Quadrupole moment (field-independent basis, Debye-Ang):
   XX=            -31.9353   YY=            -28.0451   ZZ=             25.4163
   XY=              0.0000   XZ=             -0.0000   YZ=              0.0000
 Traceless Quadrupole moment (field-independent basis, Debye-Ang):
   XX=            -20.4139   YY=            -16.5238   ZZ=             36.9377
   XY=              0.0000   XZ=             -0.0000   YZ=              0.0000
 Octapole moment (field-independent basis, Debye-Ang**2):
  XXX=              0.0000  YYY=             -0.0000  ZZZ=            192.2943  XYY=              0.0000
  XXY=             -0.0000  XXZ=             15.8601  XZZ=             -0.0000  YZZ=              0.0000
  YYZ=             14.6073  XYZ=              0.0000
 Hexadecapole moment (field-independent basis, Debye-Ang**3):
 XXXX=            -56.2422 YYYY=           -212.4231 ZZZZ=            -21.6325 XXXY=             -0.0000
 XXXZ=              0.0000 YYYX=             -0.0000 YYYZ=              0.0000 ZZZX=             -0.0000
 ZZZY=              0.0000 XXYY=            -40.6807 XXZZ=            -71.0993 YYZZ=            -98.3532
 XXYZ=             -0.0000 YYXZ=              0.0000 ZZXY=              0.0000
 N-N= 2.742992529242D+02 E-N=-1.545767041759D+03  KE= 4.283131668759D+02
 Symmetry A1   KE= 3.091007586078D+02
 Symmetry A2   KE= 4.162955288960D+00
 Symmetry B1   KE= 2.399167907516D+01
 Symmetry B2   KE= 9.105777390394D+01
 No NMR shielding tensors so no spin-rotation constants.
 Leave Link  601 at Wed Jun 24 00:00:43 2026, MaxMem=  1879048192 cpu:               0.3 elap:               0.1
 (Enter /CH/g16/l701.exe)
 ... and contract with generalized density number  0.
 Compute integral first derivatives.
 R6Disp: Adding Grimme-D3(BJ) dispersion energy 1st derivatives to the gradient.
   4 Symmetry operations used in ECPInt.
 ECPInt:  NShTT=    1953 NPrTT=    7133 LenC2=    1945 LenP2D=    5935.
 LDataN:  DoStor=T MaxTD1= 5 Len=  102
 D1PCM: PCM CHGder 1st derivatives, ID1Alg=3 FixD1E=F DoIter=F DoCFld=F I1PDM=0.
 GePol: Maximum number of non-zero 1st derivatives   =     272
 Leave Link  701 at Wed Jun 24 00:00:43 2026, MaxMem=  1879048192 cpu:               1.9 elap:               0.3
 (Enter /CH/g16/l702.exe)
 L702 exits ... SP integral derivatives will be done elsewhere.
 Leave Link  702 at Wed Jun 24 00:00:43 2026, MaxMem=  1879048192 cpu:               0.0 elap:               0.0
 (Enter /CH/g16/l703.exe)
 Integral derivatives from FoFJK, PRISM(SPDF).
 Compute integral first derivatives, UseDBF=F ICtDFT=           0.
 Calling FoFJK, ICntrl=      2127 FMM=F ISym2X=1 I1Cent= 0 IOpClX= 0 NMat=1 NMatS=1 NMatT=0.
 FoFJK:  IHMeth= 1 ICntrl=    2127 DoSepK=F KAlg= 0 I1Cent=           0 FoldK=F
 IRaf=         0 NMat=       1 IRICut=       1 DoRegI=T DoRafI=F ISym2E= 1 IDoP0=0 IntGTp=1.
 FoFCou: FMM=F IPFlag=           0 FMFlag=      100000 FMFlg1=         800
         NFxFlg=           0 DoJE=F BraDBF=F KetDBF=F FulRan=T
         wScrn=  0.000000 ICntrl=      2127 IOpCl=  0 I1Cent=           0 NGrid=           0
         NMat0=    1 NMatS0=      1 NMatT0=    0 NMatD0=    1 NMtDS0=    0 NMtDT0=    0
 Petite list used in FoFCou.
 Leave Link  703 at Wed Jun 24 00:00:44 2026, MaxMem=  1879048192 cpu:               1.9 elap:               0.3
 (Enter /CH/g16/l716.exe)
 Dipole        = 0.00000000D+00 1.77635684D-15 7.44710591D+00
 ***** Axes restored to original set *****
 -------------------------------------------------------------------
 Center     Atomic                   Forces (Hartrees/Bohr)
 Number     Number              X              Y              Z
 -------------------------------------------------------------------
      1       12          -0.000000000    0.000000000    0.007424700
      2        8          -0.000000000   -0.000000000   -0.077873365
      3        6           0.045246426    0.000000000   -0.008649757
      4        6           0.054295698    0.000000000    0.083643718
      5        6          -0.054295698    0.000000000    0.083643718
      6        6          -0.045246426    0.000000000   -0.008649757
      7        1          -0.000982017    0.001343241   -0.004603842
      8        1          -0.000982017   -0.001343241   -0.004603842
      9        1          -0.015703118   -0.018784813   -0.015280972
     10        1          -0.015703118    0.018784813   -0.015280972
     11        1           0.015703118   -0.018784813   -0.015280972
     12        1           0.015703118    0.018784813   -0.015280972
     13        1           0.000982017    0.001343241   -0.004603842
     14        1           0.000982017   -0.001343241   -0.004603842
 -------------------------------------------------------------------
 Cartesian Forces:  Max     0.083643718 RMS     0.028317842
 Leave Link  716 at Wed Jun 24 00:00:44 2026, MaxMem=  1879048192 cpu:               0.0 elap:               0.0
 (Enter /CH/g16/l103.exe)

 GradGradGradGradGradGradGradGradGradGradGradGradGradGradGradGradGradGrad
 Berny optimization.
 FormGI is forming the generalized inverse of G from B-inverse, IUseBI=4.
 Internal  Forces:  Max     0.054224437 RMS     0.013735946
 Search for a local minimum.
 Step number   1 out of a maximum of   90
 All quantities printed in internal units (Hartrees-Bohrs-Radians)
 RMS Force = .13736D-01 SwitMx=.10000D-02 MixMth= 1
 Mixed Optimization -- RFO/linear search
 Second derivative matrix not updated -- first step.
 ITU=  0
     Eigenvalues ---    0.01214   0.01551   0.01787   0.03180   0.03446
     Eigenvalues ---    0.04793   0.05391   0.05457   0.05772   0.06405
     Eigenvalues ---    0.06491   0.07410   0.08216   0.08217   0.08913
     Eigenvalues ---    0.08926   0.09866   0.10655   0.12051   0.13328
     Eigenvalues ---    0.21634   0.23127   0.25000   0.28472   0.28472
     Eigenvalues ---    0.28472   0.28472   0.33097   0.33697   0.33697
     Eigenvalues ---    0.33697   0.33697   0.34522   0.37007   0.44103
     Eigenvalues ---    0.45877
 RFO step:  Lambda=-3.92135625D-02 EMin= 1.21385163D-02
 Linear search not attempted -- first point.
 Maximum step size (   0.300) exceeded in Quadratic search.
    -- Step size scaled by   0.932
 Iteration  1 RMS(Cart)=  0.03414624 RMS(Int)=  0.00051926
 Iteration  2 RMS(Cart)=  0.00059378 RMS(Int)=  0.00023009
 Iteration  3 RMS(Cart)=  0.00000027 RMS(Int)=  0.00023009
 ITry= 1 IFail=0 DXMaxC= 1.08D-01 DCOld= 1.00D+10 DXMaxT= 3.00D-01 DXLimC= 3.00D+00 Rises=F
 ClnCor:  largest displacement from symmetrization is 5.96D-11 for atom    12.
 Variable       Old X    -DE/DX   Delta X   Delta X   Delta X     New X
                                 (Linear)    (Quad)   (Total)
    R1        3.87394  -0.00742   0.00000  -0.04011  -0.04011   3.83382
    R2        2.63208   0.04523   0.00000   0.08395   0.08388   2.71596
    R3        2.63208   0.04523   0.00000   0.08395   0.08388   2.71596
    R4        2.75518   0.05422   0.00000   0.12245   0.12247   2.87765
    R5        2.07844   0.00156   0.00000   0.00385   0.00385   2.08230
    R6        2.07844   0.00156   0.00000   0.00385   0.00385   2.08230
    R7        2.79679   0.03488   0.00000   0.08306   0.08314   2.87994
    R8        2.17819  -0.02833   0.00000  -0.08150  -0.08150   2.09669
    R9        2.17819  -0.02833   0.00000  -0.08150  -0.08150   2.09669
   R10        2.75518   0.05422   0.00000   0.12245   0.12247   2.87765
   R11        2.17819  -0.02833   0.00000  -0.08150  -0.08150   2.09669
   R12        2.17819  -0.02833   0.00000  -0.08150  -0.08150   2.09669
   R13        2.07844   0.00156   0.00000   0.00385   0.00385   2.08230
   R14        2.07844   0.00156   0.00000   0.00385   0.00385   2.08230
    A1        2.13092   0.00616   0.00000   0.01815   0.01822   2.14914
    A2        2.13092   0.00616   0.00000   0.01815   0.01822   2.14914
    A3        2.02135  -0.01231   0.00000  -0.03631  -0.03644   1.98491
    A4        1.82435   0.00772   0.00000   0.03062   0.03064   1.85499
    A5        1.92435  -0.00503   0.00000  -0.02824  -0.02865   1.89569
    A6        1.92435  -0.00503   0.00000  -0.02824  -0.02865   1.89569
    A7        1.95268   0.00074   0.00000   0.01321   0.01344   1.96612
    A8        1.95268   0.00074   0.00000   0.01321   0.01344   1.96612
    A9        1.88555   0.00065   0.00000  -0.00169  -0.00244   1.88311
   A10        1.87736  -0.00156   0.00000  -0.01247  -0.01242   1.86494
   A11        1.92946   0.00153   0.00000   0.00976   0.00950   1.93895
   A12        1.92946   0.00153   0.00000   0.00976   0.00950   1.93895
   A13        1.98131  -0.00184   0.00000  -0.01506  -0.01504   1.96627
   A14        1.98131  -0.00184   0.00000  -0.01506  -0.01504   1.96627
   A15        1.76439   0.00254   0.00000   0.02591   0.02573   1.79011
   A16        1.87736  -0.00156   0.00000  -0.01247  -0.01242   1.86494
   A17        1.98131  -0.00184   0.00000  -0.01506  -0.01504   1.96627
   A18        1.98131  -0.00184   0.00000  -0.01506  -0.01504   1.96627
   A19        1.92946   0.00153   0.00000   0.00976   0.00950   1.93895
   A20        1.92946   0.00153   0.00000   0.00976   0.00950   1.93895
   A21        1.76439   0.00254   0.00000   0.02591   0.02573   1.79011
   A22        1.82435   0.00772   0.00000   0.03062   0.03064   1.85499
   A23        1.92435  -0.00503   0.00000  -0.02824  -0.02865   1.89569
   A24        1.92435  -0.00503   0.00000  -0.02824  -0.02865   1.89569
   A25        1.95268   0.00074   0.00000   0.01321   0.01344   1.96612
   A26        1.95268   0.00074   0.00000   0.01321   0.01344   1.96612
   A27        1.88555   0.00065   0.00000  -0.00169  -0.00244   1.88311
    D1        3.14159  -0.00000   0.00000  -0.00000   0.00000   3.14159
    D2        1.04027  -0.00276   0.00000  -0.01881  -0.01836   1.02191
    D3       -1.04027   0.00276   0.00000   0.01881   0.01836  -1.02191
    D4       -0.00000  -0.00000   0.00000  -0.00000   0.00000   0.00000
    D5       -2.10133  -0.00276   0.00000  -0.01881  -0.01836  -2.11968
    D6        2.10133   0.00276   0.00000   0.01881   0.01836   2.11968
    D7        3.14159   0.00000   0.00000   0.00000   0.00000   3.14159
    D8       -1.04027   0.00276   0.00000   0.01881   0.01836  -1.02191
    D9        1.04027  -0.00276   0.00000  -0.01881  -0.01836   1.02191
   D10        0.00000   0.00000   0.00000   0.00000   0.00000   0.00000
   D11        2.10133   0.00276   0.00000   0.01881   0.01836   2.11968
   D12       -2.10133  -0.00276   0.00000  -0.01881  -0.01836  -2.11968
   D13        0.00000  -0.00000   0.00000  -0.00000   0.00000   0.00000
   D14       -2.17209   0.00236   0.00000   0.02087   0.02096  -2.15113
   D15        2.17209  -0.00236   0.00000  -0.02087  -0.02096   2.15113
   D16        2.08231  -0.00095   0.00000  -0.00836  -0.00831   2.07400
   D17       -0.08978   0.00140   0.00000   0.01251   0.01266  -0.07713
   D18       -2.02879  -0.00331   0.00000  -0.02924  -0.02927  -2.05806
   D19       -2.08231   0.00095   0.00000   0.00836   0.00831  -2.07400
   D20        2.02879   0.00331   0.00000   0.02924   0.02927   2.05806
   D21        0.08978  -0.00140   0.00000  -0.01251  -0.01266   0.07713
   D22        0.00000   0.00000   0.00000   0.00000   0.00000   0.00000
   D23       -2.14043   0.00038   0.00000   0.00641   0.00635  -2.13408
   D24        2.14043  -0.00038   0.00000  -0.00641  -0.00635   2.13408
   D25        2.14043  -0.00038   0.00000  -0.00641  -0.00635   2.13408
   D26       -0.00000  -0.00000   0.00000  -0.00000   0.00000   0.00000
   D27       -2.00233  -0.00076   0.00000  -0.01282  -0.01269  -2.01502
   D28       -2.14043   0.00038   0.00000   0.00641   0.00635  -2.13408
   D29        2.00233   0.00076   0.00000   0.01282   0.01269   2.01502
   D30        0.00000   0.00000   0.00000   0.00000   0.00000   0.00000
   D31       -0.00000  -0.00000   0.00000  -0.00000   0.00000   0.00000
   D32       -2.08231   0.00095   0.00000   0.00836   0.00831  -2.07400
   D33        2.08231  -0.00095   0.00000  -0.00836  -0.00831   2.07400
   D34        2.17209  -0.00236   0.00000  -0.02087  -0.02096   2.15113
   D35        0.08978  -0.00140   0.00000  -0.01251  -0.01266   0.07713
   D36       -2.02879  -0.00331   0.00000  -0.02924  -0.02927  -2.05806
   D37       -2.17209   0.00236   0.00000   0.02087   0.02096  -2.15113
   D38        2.02879   0.00331   0.00000   0.02924   0.02927   2.05806
   D39       -0.08978   0.00140   0.00000   0.01251   0.01266  -0.07713
         Item               Value     Threshold  Converged?
 Maximum Force            0.054224     0.000450     NO 
 RMS     Force            0.013736     0.000300     NO 
 Maximum Displacement     0.107719     0.001800     NO 
 RMS     Displacement     0.034207     0.001200     NO 
 Predicted change in Energy=-2.145507D-02
 Lowest energy point so far.  Saving SCF results.
 GradGradGradGradGradGradGradGradGradGradGradGradGradGradGradGradGradGrad

 Leave Link  103 at Wed Jun 24 00:00:44 2026, MaxMem=  1879048192 cpu:               0.0 elap:               0.0
 (Enter /CH/g16/l202.exe)
                          Input orientation:                          
 ---------------------------------------------------------------------
 Center     Atomic      Atomic             Coordinates (Angstroms)
 Number     Number       Type             X           Y           Z
 ---------------------------------------------------------------------
      1         12           0        0.000000    0.000000   -2.084792
      2          8           0        0.000000    0.000000   -0.056020
      3          6           0        1.203488   -0.000000    0.729620
      4          6           0        0.761998   -0.000000    2.187003
      5          6           0       -0.761998   -0.000000    2.187003
      6          6           0       -1.203488   -0.000000    0.729620
      7          1           0        1.795847    0.890860    0.465670
      8          1           0        1.795847   -0.890860    0.465670
      9          1           0        1.189436    0.865697    2.733722
     10          1           0        1.189436   -0.865697    2.733722
     11          1           0       -1.189436    0.865697    2.733722
     12          1           0       -1.189436   -0.865697    2.733722
     13          1           0       -1.795847    0.890860    0.465670
     14          1           0       -1.795847   -0.890860    0.465670
 ---------------------------------------------------------------------
                    Distance matrix (angstroms):
                    1          2          3          4          5
     1  Mg   0.000000
     2  O    2.028772   0.000000
     3  C    3.060931   1.437224   0.000000
     4  C    4.339225   2.368922   1.522786   0.000000
     5  C    4.339225   2.368922   2.446856   1.523997   0.000000
     6  C    3.060931   1.437224   2.406976   2.446856   1.522786
     7  H    3.244003   2.071439   1.101903   2.196693   3.209236
     8  H    3.244003   2.071439   1.101903   2.196693   3.209236
     9  H    5.038082   3.153862   2.183130   1.109521   2.203731
    10  H    5.038082   3.153862   2.183130   1.109521   2.203731
    11  H    5.038082   3.153862   3.239127   2.203731   1.109521
    12  H    5.038082   3.153862   3.239127   2.203731   1.109521
    13  H    3.244003   2.071439   3.139955   3.209236   2.196693
    14  H    3.244003   2.071439   3.139955   3.209236   2.196693
                    6          7          8          9         10
     6  C    0.000000
     7  H    3.139955   0.000000
     8  H    3.139955   1.781721   0.000000
     9  H    3.239127   2.347856   2.932113   0.000000
    10  H    3.239127   2.932113   2.347856   1.731393   0.000000
    11  H    2.183130   3.749215   4.140226   2.378872   2.942237
    12  H    2.183130   4.140226   3.749215   2.942237   2.378872
    13  H    1.101903   3.591694   4.009339   3.749215   4.140226
    14  H    1.101903   4.009339   3.591694   4.140226   3.749215
                   11         12         13         14
    11  H    0.000000
    12  H    1.731393   0.000000
    13  H    2.347856   2.932113   0.000000
    14  H    2.932113   2.347856   1.781721   0.000000
 Stoichiometry    C4H8MgO(2+)
 Framework group  C2V[C2(OMg),SGV(C4),X(H8)]
 Deg. of freedom    11
 Full point group                 C2V     NOp   4
 RotChk:  IX=0 Diff= 8.74D-16
 Largest Abelian subgroup         C2V     NOp   4
 Largest concise Abelian subgroup C2V     NOp   4
                         Standard orientation:                         
 ---------------------------------------------------------------------
 Center     Atomic      Atomic             Coordinates (Angstroms)
 Number     Number       Type             X           Y           Z
 ---------------------------------------------------------------------
      1         12           0        0.000000    0.000000    2.514242
      2          8           0        0.000000    0.000000    0.485469
      3          6           0        0.000000    1.203488   -0.300170
      4          6           0        0.000000    0.761998   -1.757553
      5          6           0       -0.000000   -0.761998   -1.757553
      6          6           0       -0.000000   -1.203488   -0.300170
      7          1           0        0.890860    1.795847   -0.036220
      8          1           0       -0.890860    1.795847   -0.036220
      9          1           0        0.865697    1.189436   -2.304273
     10          1           0       -0.865697    1.189436   -2.304273
     11          1           0        0.865697   -1.189436   -2.304273
     12          1           0       -0.865697   -1.189436   -2.304273
     13          1           0        0.890860   -1.795847   -0.036220
     14          1           0       -0.890860   -1.795847   -0.036220
 ---------------------------------------------------------------------
 Rotational constants (GHZ):           6.8645396           1.9555939           1.5812466
 Leave Link  202 at Wed Jun 24 00:00:44 2026, MaxMem=  1879048192 cpu:               0.0 elap:               0.0
 (Enter /CH/g16/l301.exe)
 Standard basis: def2SVP (5D, 7F)
 Ernie: Thresh=  0.10000D-02 Tol=  0.10000D-05 Strict=F.
 There are    50 symmetry adapted cartesian basis functions of A1  symmetry.
 There are    20 symmetry adapted cartesian basis functions of A2  symmetry.
 There are    25 symmetry adapted cartesian basis functions of B1  symmetry.
 There are    39 symmetry adapted cartesian basis functions of B2  symmetry.
 There are    46 symmetry adapted basis functions of A1  symmetry.
 There are    20 symmetry adapted basis functions of A2  symmetry.
 There are    25 symmetry adapted basis functions of B1  symmetry.
 There are    37 symmetry adapted basis functions of B2  symmetry.
   128 basis functions,   218 primitive gaussians,   134 cartesian basis functions
    25 alpha electrons       25 beta electrons
       nuclear repulsion energy       269.2352632665 Hartrees.
 IExCor=  402 DFT=T Ex+Corr=B3LYP ExCW=0 ScaHFX=  0.200000
 ScaDFX=  0.800000  0.720000  1.000000  0.810000 ScalE2=  1.000000  1.000000
 IRadAn=      5 IRanWt=     -1 IRanGd=            0 ICorTp=0 IEmpDi=141
 NAtoms=   14 NActive=   14 NUniq=    6 SFac= 4.00D+00 NAtFMM=   60 NAOKFM=F Big=F
 Integral buffers will be    131072 words long.
 Raffenetti 2 integral format.
 Two-electron integral symmetry is turned on.
 R6Disp:  Grimme-D3(BJ) Dispersion energy=       -0.0218558070 Hartrees.
 Nuclear repulsion after empirical dispersion term =      269.2134074595 Hartrees.
 ------------------------------------------------------------------------------
 Polarizable Continuum Model (PCM)
 =================================
 Model                : PCM.
 Atomic radii         : SMD-Coulomb.
 Polarization charges : Total charges.
 Charge compensation  : None.
 Solution method      : On-the-fly selection.
 Cavity type          : VdW (van der Waals Surface) (Alpha=1.000).
 Cavity algorithm     : GePol (No added spheres)
                        Default sphere list used, NSphG=   14.
                        Lebedev-Laikov grids with approx.  5.0 points / Ang**2.
                        Smoothing algorithm: York/Karplus (Gamma=1.0000).
                        Polarization charges: spherical gaussians, with
                                              point-specific exponents (IZeta= 3).
                        Self-potential: point-specific (ISelfS= 7).
                        Self-field    : sphere-specific E.n sum rule (ISelfD= 2).
 1st derivatives      : Analytical E(r).r(x)/FMM algorithm (CHGder, D1EAlg=3).
                        Cavity 1st derivative terms included.
 Solvent              : TetraHydroFuran, Eps=   7.425700 Eps(inf)=   1.974025
 ------------------------------------------------------------------------------
 Spheres list:
 ISph  on   Nord     Re0    Alpha      Xe            Ye            Ze
    1  Mg      1    1.7300  1.000      0.000000      0.000000      2.514242
    2   O      2    2.2940  1.000      0.000000      0.000000      0.485469
    3   C      3    1.8500  1.000      0.000000      1.203488     -0.300170
    4   C      4    1.8500  1.000      0.000000      0.761998     -1.757553
    5   C      5    1.8500  1.000     -0.000000     -0.761998     -1.757553
    6   C      6    1.8500  1.000     -0.000000     -1.203488     -0.300170
    7   H      7    1.2000  1.000      0.890860      1.795847     -0.036220
    8   H      8    1.2000  1.000     -0.890860      1.795847     -0.036220
    9   H      9    1.2000  1.000      0.865697      1.189436     -2.304273
   10   H     10    1.2000  1.000     -0.865697      1.189436     -2.304273
   11   H     11    1.2000  1.000      0.865697     -1.189436     -2.304273
   12   H     12    1.2000  1.000     -0.865697     -1.189436     -2.304273
   13   H     13    1.2000  1.000      0.890860     -1.795847     -0.036220
   14   H     14    1.2000  1.000     -0.890860     -1.795847     -0.036220
 ------------------------------------------------------------------------------
 GePol: Number of generator spheres                  =      14
 GePol: Total number of spheres                      =      14
 GePol: Number of exposed spheres                    =      14 (100.00%)
 GePol: Number of points                             =    1093
 GePol: Average weight of points                     =       0.12
 GePol: Minimum weight of points                     =   0.21D-08
 GePol: Maximum weight of points                     =    0.21501
 GePol: Number of points with low weight             =      68
 GePol: Fraction of low-weight points (<1% of avg)   =       6.22%
 GePol: Cavity surface area                          =    129.874 Ang**2
 GePol: Cavity volume                                =    110.864 Ang**3
 ------------------------------------------------------------------------------
 Atomic radii for non-electrostatic terms: SMD-CDS.
 ------------------------------------------------------------------------------
 PCM non-electrostatic energy =        -0.0011954212 Hartrees.
 Nuclear repulsion after PCM non-electrostatic terms =      269.2122120383 Hartrees.
 Leave Link  301 at Wed Jun 24 00:00:44 2026, MaxMem=  1879048192 cpu:               0.0 elap:               0.0
 (Enter /CH/g16/l302.exe)
 NPDir=0 NMtPBC=     1 NCelOv=     1 NCel=       1 NClECP=     1 NCelD=      1
         NCelK=      1 NCelE2=     1 NClLst=     1 CellRange=     0.0.
 One-electron integrals computed using PRISM.
 One-electron integral symmetry used in STVInt
   4 Symmetry operations used in ECPInt.
 ECPInt:  NShTT=    1953 NPrTT=    7133 LenC2=    1945 LenP2D=    5922.
 LDataN:  DoStor=T MaxTD1= 4 Len=   56
 NBasis=   128 RedAO= T EigKep=  1.05D-03  NBF=    46    20    25    37
 NBsUse=   128 1.00D-06 EigRej= -1.00D+00 NBFU=    46    20    25    37
 Precomputing XC quadrature grid using
 IXCGrd= 4 IRadAn=           5 IRanWt=          -1 IRanGd=           0 AccXCQ= 0.00D+00.
 Generated NRdTot=       0 NPtTot=           0 NUsed=           0 NTot=          32
 NSgBfM=   134   134   134   134   134 MxSgAt=    14 MxSgA2=    14.
 Leave Link  302 at Wed Jun 24 00:00:44 2026, MaxMem=  1879048192 cpu:               0.4 elap:               0.1
 (Enter /CH/g16/l303.exe)
 DipDrv:  MaxL=1.
 Leave Link  303 at Wed Jun 24 00:00:44 2026, MaxMem=  1879048192 cpu:               0.0 elap:               0.0
 (Enter /CH/g16/l401.exe)
 Initial guess from the checkpoint file:  "Mg_THF.chk"
 B after Tr=     0.000000    0.000000   -0.000000
         Rot=    1.000000    0.000000   -0.000000   -0.000000 Ang=   0.00 deg.
 Guess basis will be translated and rotated to current coordinates.
 JPrj=2 DoOrth=T DoCkMO=T.
 Initial guess orbital symmetries:
       Occupied  (A1) (A1) (B2) (A1) (A1) (B2) (A1) (B2) (B1) (A1)
                 (A1) (A1) (B2) (B2) (A1) (A1) (B1) (B2) (A2) (B1)
                 (A1) (A1) (B2) (B1) (A2)
       Virtual   (A1) (B1) (B2) (A1) (B1) (A1) (A1) (B2) (A2) (A1)
                 (B2) (B2) (B1) (A1) (A1) (A2) (B2) (A2) (B1) (A1)
                 (B1) (B2) (A1) (B2) (A1) (B2) (B1) (A1) (B2) (A1)
                 (A2) (A1) (B2) (B1) (A1) (B2) (B1) (B2) (A2) (A1)
                 (A1) (B2) (B1) (A2) (A1) (B2) (A2) (B2) (A1) (B1)
                 (A1) (B2) (B2) (A2) (B1) (A2) (B1) (A1) (A1) (B2)
                 (B1) (A1) (A2) (B1) (A2) (A1) (B2) (B1) (A1) (B1)
                 (A1) (A2) (B2) (B2) (B1) (A2) (B2) (A1) (A2) (A1)
                 (A1) (B2) (B2) (B2) (A1) (B1) (A1) (A2) (A1) (B2)
                 (B1) (B2) (B2) (B1) (A1) (A2) (A1) (B2) (A2) (B1)
                 (A2) (A1) (B2)
 The electronic state of the initial guess is 1-A1.
 Generating alternative initial guess.
 ExpMin= 3.36D-02 ExpMax= 4.95D+03 ExpMxC= 7.45D+02 IAcc=3 IRadAn=         5 AccDes= 0.00D+00
 Harris functional with IExCor=  402 and IRadAn=       5 diagonalized for initial guess.
 HarFok:  IExCor=  402 AccDes= 0.00D+00 IRadAn=         5 IDoV= 1 UseB2=F ITyADJ=14
 ICtDFT=  3500011 ScaDFX=  1.000000  1.000000  1.000000  1.000000
 FoFCou: FMM=F IPFlag=           0 FMFlag=      100000 FMFlg1=           0
         NFxFlg=           0 DoJE=T BraDBF=F KetDBF=T FulRan=T
         wScrn=  0.000000 ICntrl=       500 IOpCl=  0 I1Cent=   200000004 NGrid=           0
         NMat0=    1 NMatS0=      1 NMatT0=    0 NMatD0=    1 NMtDS0=    0 NMtDT0=    0
 Petite list used in FoFCou.
 Harris En= -431.980210964223    
 Leave Link  401 at Wed Jun 24 00:00:44 2026, MaxMem=  1879048192 cpu:               0.8 elap:               0.2
 (Enter /CH/g16/l502.exe)
 Keep R1 ints in memory in symmetry-blocked form, NReq=42711890.
 FoFCou: FMM=F IPFlag=           0 FMFlag=           0 FMFlg1=           0
         NFxFlg=           0 DoJE=F BraDBF=F KetDBF=F FulRan=T
         wScrn=  0.000000 ICntrl=       600 IOpCl=  0 I1Cent=           0 NGrid=           0
         NMat0=    1 NMatS0=   8256 NMatT0=    0 NMatD0=    1 NMtDS0=    0 NMtDT0=    0
 Petite list used in FoFCou.
 Closed shell SCF:
 Using DIIS extrapolation, IDIIS=  1040.
 NGot=  1879048192 LenX=  1870383699 LenY=  1870365302
 Requested convergence on RMS density matrix=1.00D-08 within 128 cycles.
 Requested convergence on MAX density matrix=1.00D-06.
 Requested convergence on             energy=1.00D-06.
 No special actions if energy rises.

 Cycle   1  Pass 1  IDiag  1:
 Inv3:  Mode=1 IEnd=     3583947.
 Iteration    1 A*A^-1 deviation from unit magnitude is 2.89D-15 for    113.
 Iteration    1 A*A^-1 deviation from orthogonality  is 2.25D-15 for    866    588.
 Iteration    1 A^-1*A deviation from unit magnitude is 3.11D-15 for    127.
 Iteration    1 A^-1*A deviation from orthogonality  is 3.62D-15 for    636    612.
 E= -432.042225213148    
 DIIS: error= 3.90D-03 at cycle   1 NSaved=   1.
 NSaved= 1 IEnMin= 1 EnMin= -432.042225213148     IErMin= 1 ErrMin= 3.90D-03
 ErrMax= 3.90D-03  0.00D+00 EMaxC= 1.00D-01 BMatC= 3.41D-03 BMatP= 3.41D-03
 IDIUse=3 WtCom= 9.61D-01 WtEn= 3.90D-02
 Coeff-Com:  0.100D+01
 Coeff-En:   0.100D+01
 Coeff:      0.100D+01
 Gap=     0.205 Goal=   None    Shift=    0.000
 GapD=    0.205 DampG=1.000 DampE=1.000 DampFc=1.0000 IDamp=-1.
 RMSDP=9.36D-04 MaxDP=1.69D-02              OVMax= 1.64D-02

 Cycle   2  Pass 1  IDiag  1:
 E= -432.046691464668     Delta-E=       -0.004466251520 Rises=F Damp=F
 DIIS: error= 1.45D-03 at cycle   2 NSaved=   2.
 NSaved= 2 IEnMin= 2 EnMin= -432.046691464668     IErMin= 2 ErrMin= 1.45D-03
 ErrMax= 1.45D-03  0.00D+00 EMaxC= 1.00D-01 BMatC= 2.75D-04 BMatP= 3.41D-03
 IDIUse=3 WtCom= 9.85D-01 WtEn= 1.45D-02
 Coeff-Com:  0.122D+00 0.878D+00
 Coeff-En:   0.000D+00 0.100D+01
 Coeff:      0.121D+00 0.879D+00
 Gap=     0.207 Goal=   None    Shift=    0.000
 RMSDP=2.03D-04 MaxDP=5.90D-03 DE=-4.47D-03 OVMax= 5.88D-03

 Cycle   3  Pass 1  IDiag  1:
 E= -432.046779587529     Delta-E=       -0.000088122861 Rises=F Damp=F
 DIIS: error= 1.42D-03 at cycle   3 NSaved=   3.
 NSaved= 3 IEnMin= 3 EnMin= -432.046779587529     IErMin= 3 ErrMin= 1.42D-03
 ErrMax= 1.42D-03  0.00D+00 EMaxC= 1.00D-01 BMatC= 1.72D-04 BMatP= 2.75D-04
 IDIUse=3 WtCom= 9.86D-01 WtEn= 1.42D-02
 Coeff-Com: -0.105D-01 0.437D+00 0.574D+00
 Coeff-En:   0.000D+00 0.393D+00 0.607D+00
 Coeff:     -0.104D-01 0.436D+00 0.574D+00
 Gap=     0.204 Goal=   None    Shift=    0.000
 RMSDP=1.08D-04 MaxDP=2.94D-03 DE=-8.81D-05 OVMax= 3.12D-03

 Cycle   4  Pass 1  IDiag  1:
 E= -432.046947657764     Delta-E=       -0.000168070235 Rises=F Damp=F
 DIIS: error= 1.78D-04 at cycle   4 NSaved=   4.
 NSaved= 4 IEnMin= 4 EnMin= -432.046947657764     IErMin= 4 ErrMin= 1.78D-04
 ErrMax= 1.78D-04  0.00D+00 EMaxC= 1.00D-01 BMatC= 4.81D-06 BMatP= 1.72D-04
 IDIUse=3 WtCom= 9.98D-01 WtEn= 1.78D-03
 Coeff-Com: -0.641D-02 0.125D+00 0.230D+00 0.652D+00
 Coeff-En:   0.000D+00 0.000D+00 0.000D+00 0.100D+01
 Coeff:     -0.640D-02 0.124D+00 0.230D+00 0.652D+00
 Gap=     0.205 Goal=   None    Shift=    0.000
 RMSDP=1.89D-05 MaxDP=5.69D-04 DE=-1.68D-04 OVMax= 6.03D-04

 Cycle   5  Pass 1  IDiag  1:
 E= -432.046951305582     Delta-E=       -0.000003647817 Rises=F Damp=F
 DIIS: error= 8.33D-05 at cycle   5 NSaved=   5.
 NSaved= 5 IEnMin= 5 EnMin= -432.046951305582     IErMin= 5 ErrMin= 8.33D-05
 ErrMax= 8.33D-05  0.00D+00 EMaxC= 1.00D-01 BMatC= 1.09D-06 BMatP= 4.81D-06
 IDIUse=1 WtCom= 1.00D+00 WtEn= 0.00D+00
 Coeff-Com: -0.331D-02 0.399D-01 0.955D-01 0.379D+00 0.489D+00
 Coeff:     -0.331D-02 0.399D-01 0.955D-01 0.379D+00 0.489D+00
 Gap=     0.205 Goal=   None    Shift=    0.000
 RMSDP=5.64D-06 MaxDP=2.21D-04 DE=-3.65D-06 OVMax= 2.05D-04

 Cycle   6  Pass 1  IDiag  1:
 E= -432.046952077536     Delta-E=       -0.000000771954 Rises=F Damp=F
 DIIS: error= 1.51D-05 at cycle   6 NSaved=   6.
 NSaved= 6 IEnMin= 6 EnMin= -432.046952077536     IErMin= 6 ErrMin= 1.51D-05
 ErrMax= 1.51D-05  0.00D+00 EMaxC= 1.00D-01 BMatC= 2.66D-08 BMatP= 1.09D-06
 IDIUse=1 WtCom= 1.00D+00 WtEn= 0.00D+00
 Coeff-Com: -0.341D-03-0.707D-03 0.741D-02 0.511D-01 0.170D+00 0.772D+00
 Coeff:     -0.341D-03-0.707D-03 0.741D-02 0.511D-01 0.170D+00 0.772D+00
 Gap=     0.205 Goal=   None    Shift=    0.000
 RMSDP=1.10D-06 MaxDP=2.75D-05 DE=-7.72D-07 OVMax= 3.44D-05

 Cycle   7  Pass 1  IDiag  1:
 E= -432.046952097863     Delta-E=       -0.000000020327 Rises=F Damp=F
 DIIS: error= 2.39D-06 at cycle   7 NSaved=   7.
 NSaved= 7 IEnMin= 7 EnMin= -432.046952097863     IErMin= 7 ErrMin= 2.39D-06
 ErrMax= 2.39D-06  0.00D+00 EMaxC= 1.00D-01 BMatC= 7.85D-10 BMatP= 2.66D-08
 IDIUse=1 WtCom= 1.00D+00 WtEn= 0.00D+00
 Coeff-Com: -0.580D-04-0.128D-02 0.880D-03 0.132D-01 0.589D-01 0.310D+00
 Coeff-Com:  0.618D+00
 Coeff:     -0.580D-04-0.128D-02 0.880D-03 0.132D-01 0.589D-01 0.310D+00
 Coeff:      0.618D+00
 Gap=     0.205 Goal=   None    Shift=    0.000
 RMSDP=2.64D-07 MaxDP=8.25D-06 DE=-2.03D-08 OVMax= 8.82D-06

 Cycle   8  Pass 1  IDiag  1:
 E= -432.046952098579     Delta-E=       -0.000000000717 Rises=F Damp=F
 DIIS: error= 7.32D-07 at cycle   8 NSaved=   8.
 NSaved= 8 IEnMin= 8 EnMin= -432.046952098579     IErMin= 8 ErrMin= 7.32D-07
 ErrMax= 7.32D-07  0.00D+00 EMaxC= 1.00D-01 BMatC= 9.60D-11 BMatP= 7.85D-10
 IDIUse=1 WtCom= 1.00D+00 WtEn= 0.00D+00
 Coeff-Com:  0.586D-05-0.416D-03-0.397D-03 0.119D-03 0.618D-02 0.451D-01
 Coeff-Com:  0.281D+00 0.668D+00
 Coeff:      0.586D-05-0.416D-03-0.397D-03 0.119D-03 0.618D-02 0.451D-01
 Coeff:      0.281D+00 0.668D+00
 Gap=     0.205 Goal=   None    Shift=    0.000
 RMSDP=7.25D-08 MaxDP=2.05D-06 DE=-7.17D-10 OVMax= 2.52D-06

 Cycle   9  Pass 1  IDiag  1:
 E= -432.046952098675     Delta-E=       -0.000000000096 Rises=F Damp=F
 DIIS: error= 6.77D-08 at cycle   9 NSaved=   9.
 NSaved= 9 IEnMin= 9 EnMin= -432.046952098675     IErMin= 9 ErrMin= 6.77D-08
 ErrMax= 6.77D-08  0.00D+00 EMaxC= 1.00D-01 BMatC= 5.21D-13 BMatP= 9.60D-11
 IDIUse=1 WtCom= 1.00D+00 WtEn= 0.00D+00
 Coeff-Com:  0.267D-05-0.148D-04-0.970D-04-0.425D-03-0.926D-03-0.496D-02
 Coeff-Com:  0.188D-01 0.859D-01 0.902D+00
 Coeff:      0.267D-05-0.148D-04-0.970D-04-0.425D-03-0.926D-03-0.496D-02
 Coeff:      0.188D-01 0.859D-01 0.902D+00
 Gap=     0.205 Goal=   None    Shift=    0.000
 RMSDP=6.78D-09 MaxDP=1.17D-07 DE=-9.59D-11 OVMax= 2.26D-07

 Error on total polarization charges =  0.02503
 SCF Done:  E(RB3LYP) =  -432.046952099     A.U. after    9 cycles
            NFock=  9  Conv=0.68D-08     -V/T= 2.0094
 KE= 4.280369958789D+02 PE=-1.535641476551D+03 EE= 4.063453165354D+02
 SMD-CDS (non-electrostatic) energy       (kcal/mol) =      -0.75
 (included in total energy above)
 Leave Link  502 at Wed Jun 24 00:00:46 2026, MaxMem=  1879048192 cpu:              12.1 elap:               1.8
 (Enter /CH/g16/l701.exe)
 ... and contract with generalized density number  0.
 Compute integral first derivatives.
 R6Disp: Adding Grimme-D3(BJ) dispersion energy 1st derivatives to the gradient.
   4 Symmetry operations used in ECPInt.
 ECPInt:  NShTT=    1953 NPrTT=    7133 LenC2=    1945 LenP2D=    5922.
 LDataN:  DoStor=T MaxTD1= 5 Len=  102
 D1PCM: PCM CHGder 1st derivatives, ID1Alg=3 FixD1E=F DoIter=F DoCFld=F I1PDM=0.
 GePol: Maximum number of non-zero 1st derivatives   =     276
 Leave Link  701 at Wed Jun 24 00:00:46 2026, MaxMem=  1879048192 cpu:               2.0 elap:               0.3
 (Enter /CH/g16/l702.exe)
 L702 exits ... SP integral derivatives will be done elsewhere.
 Leave Link  702 at Wed Jun 24 00:00:46 2026, MaxMem=  1879048192 cpu:               0.0 elap:               0.0
 (Enter /CH/g16/l703.exe)
 Integral derivatives from FoFJK, PRISM(SPDF).
 Compute integral first derivatives, UseDBF=F ICtDFT=           0.
 Calling FoFJK, ICntrl=      2127 FMM=F ISym2X=1 I1Cent= 0 IOpClX= 0 NMat=1 NMatS=1 NMatT=0.
 FoFJK:  IHMeth= 1 ICntrl=    2127 DoSepK=F KAlg= 0 I1Cent=           0 FoldK=F
 IRaf=         0 NMat=       1 IRICut=       1 DoRegI=T DoRafI=F ISym2E= 1 IDoP0=0 IntGTp=1.
 FoFCou: FMM=F IPFlag=           0 FMFlag=      100000 FMFlg1=         800
         NFxFlg=           0 DoJE=F BraDBF=F KetDBF=F FulRan=T
         wScrn=  0.000000 ICntrl=      2127 IOpCl=  0 I1Cent=           0 NGrid=           0
         NMat0=    1 NMatS0=      1 NMatT0=    0 NMatD0=    1 NMtDS0=    0 NMtDT0=    0
 Petite list used in FoFCou.
 Leave Link  703 at Wed Jun 24 00:00:46 2026, MaxMem=  1879048192 cpu:               1.8 elap:               0.3
 (Enter /CH/g16/l716.exe)
 Dipole        =-4.44089210D-16-2.66453526D-15 7.40737516D+00
 ***** Axes restored to original set *****
 -------------------------------------------------------------------
 Center     Atomic                   Forces (Hartrees/Bohr)
 Number     Number              X              Y              Z
 -------------------------------------------------------------------
      1       12           0.000000000   -0.000000000    0.007535016
      2        8           0.000000000   -0.000000000   -0.026617178
      3        6           0.019163630    0.000000000    0.007040376
      4        6           0.017698601   -0.000000000    0.016952808
      5        6          -0.017698601    0.000000000    0.016952808
      6        6          -0.019163630    0.000000000    0.007040376
      7        1          -0.002272315    0.000417989   -0.000495666
      8        1          -0.002272315   -0.000417989   -0.000495666
      9        1          -0.005623217   -0.000799821   -0.006730386
     10        1          -0.005623217    0.000799821   -0.006730386
     11        1           0.005623217   -0.000799821   -0.006730386
     12        1           0.005623217    0.000799821   -0.006730386
     13        1           0.002272315    0.000417989   -0.000495666
     14        1           0.002272315   -0.000417989   -0.000495666
 -------------------------------------------------------------------
 Cartesian Forces:  Max     0.026617178 RMS     0.008636466
 Leave Link  716 at Wed Jun 24 00:00:46 2026, MaxMem=  1879048192 cpu:               0.0 elap:               0.0
 (Enter /CH/g16/l103.exe)

 GradGradGradGradGradGradGradGradGradGradGradGradGradGradGradGradGradGrad
 Berny optimization.
 Using GEDIIS/GDIIS optimizer.
 FormGI is forming the generalized inverse of G from B-inverse, IUseBI=4.
 Internal  Forces:  Max     0.015413404 RMS     0.003403198
[...]
 ! A12   A(3,4,10)             110.0821         -DE/DX =    0.0                 !
 ! A13   A(5,4,9)              110.8128         -DE/DX =    0.0                 !
 ! A14   A(5,4,10)             110.8128         -DE/DX =    0.0                 !
 ! A15   A(9,4,10)             107.7674         -DE/DX =   -0.0001              !
 ! A16   A(4,5,6)              107.2985         -DE/DX =    0.0                 !
 ! A17   A(4,5,11)             110.8128         -DE/DX =    0.0                 !
 ! A18   A(4,5,12)             110.8128         -DE/DX =    0.0                 !
 ! A19   A(6,5,11)             110.0821         -DE/DX =    0.0                 !
 ! A20   A(6,5,12)             110.0821         -DE/DX =    0.0                 !
 ! A21   A(11,5,12)            107.7674         -DE/DX =   -0.0001              !
 ! A22   A(2,6,5)              106.327          -DE/DX =    0.0                 !
 ! A23   A(2,6,13)             107.0044         -DE/DX =    0.0                 !
 ! A24   A(2,6,14)             107.0044         -DE/DX =    0.0                 !
 ! A25   A(5,6,13)             113.1435         -DE/DX =    0.0                 !
 ! A26   A(5,6,14)             113.1435         -DE/DX =    0.0                 !
 ! A27   A(13,6,14)            109.7836         -DE/DX =    0.0                 !
 ! D1    D(1,2,3,4)            180.0            -DE/DX =    0.0                 !
 ! D2    D(1,2,3,7)             58.8113         -DE/DX =    0.0                 !
 ! D3    D(1,2,3,8)            -58.8113         -DE/DX =    0.0                 !
 ! D4    D(6,2,3,4)              0.0            -DE/DX =    0.0                 !
 ! D5    D(6,2,3,7)           -121.1887         -DE/DX =    0.0                 !
 ! D6    D(6,2,3,8)            121.1887         -DE/DX =    0.0                 !
 ! D7    D(1,2,6,5)            180.0            -DE/DX =    0.0                 !
 ! D8    D(1,2,6,13)           -58.8113         -DE/DX =    0.0                 !
 ! D9    D(1,2,6,14)            58.8113         -DE/DX =    0.0                 !
 ! D10   D(3,2,6,5)              0.0            -DE/DX =    0.0                 !
 ! D11   D(3,2,6,13)           121.1887         -DE/DX =    0.0                 !
 ! D12   D(3,2,6,14)          -121.1887         -DE/DX =    0.0                 !
 ! D13   D(2,3,4,5)              0.0            -DE/DX =    0.0                 !
 ! D14   D(2,3,4,9)           -120.6704         -DE/DX =    0.0                 !
 ! D15   D(2,3,4,10)           120.6704         -DE/DX =    0.0                 !
 ! D16   D(7,3,4,5)            117.1688         -DE/DX =    0.0                 !
 ! D17   D(7,3,4,9)             -3.5016         -DE/DX =    0.0                 !
 ! D18   D(7,3,4,10)          -122.1608         -DE/DX =    0.0                 !
 ! D19   D(8,3,4,5)           -117.1688         -DE/DX =    0.0                 !
 ! D20   D(8,3,4,9)            122.1608         -DE/DX =    0.0                 !
 ! D21   D(8,3,4,10)             3.5016         -DE/DX =    0.0                 !
 ! D22   D(3,4,5,6)              0.0            -DE/DX =    0.0                 !
 ! D23   D(3,4,5,11)          -120.2068         -DE/DX =    0.0                 !
 ! D24   D(3,4,5,12)           120.2068         -DE/DX =    0.0                 !
 ! D25   D(9,4,5,6)            120.2068         -DE/DX =    0.0                 !
 ! D26   D(9,4,5,11)             0.0            -DE/DX =    0.0                 !
 ! D27   D(9,4,5,12)          -119.5865         -DE/DX =    0.0001              !
 ! D28   D(10,4,5,6)          -120.2068         -DE/DX =    0.0                 !
 ! D29   D(10,4,5,11)          119.5865         -DE/DX =   -0.0001              !
 ! D30   D(10,4,5,12)            0.0            -DE/DX =    0.0                 !
 ! D31   D(4,5,6,2)              0.0            -DE/DX =    0.0                 !
 ! D32   D(4,5,6,13)          -117.1688         -DE/DX =    0.0                 !
 ! D33   D(4,5,6,14)           117.1688         -DE/DX =    0.0                 !
 ! D34   D(11,5,6,2)           120.6704         -DE/DX =    0.0                 !
 ! D35   D(11,5,6,13)            3.5016         -DE/DX =    0.0                 !
 ! D36   D(11,5,6,14)         -122.1608         -DE/DX =    0.0                 !
 ! D37   D(12,5,6,2)          -120.6704         -DE/DX =    0.0                 !
 ! D38   D(12,5,6,13)          122.1608         -DE/DX =    0.0                 !
 ! D39   D(12,5,6,14)           -3.5016         -DE/DX =    0.0                 !
 --------------------------------------------------------------------------------
 Lowest energy point so far.  Saving SCF results.
 Largest change from initial coordinates is atom    2       0.045 Angstoms.
 GradGradGradGradGradGradGradGradGradGradGradGradGradGradGradGradGradGrad

 Leave Link  103 at Wed Jun 24 00:00:57 2026, MaxMem=  1879048192 cpu:               0.0 elap:               0.0
 (Enter /CH/g16/l202.exe)
                          Input orientation:                          
 ---------------------------------------------------------------------
 Center     Atomic      Atomic             Coordinates (Angstroms)
 Number     Number       Type             X           Y           Z
 ---------------------------------------------------------------------
      1         12           0        0.000000    0.000000   -2.034870
      2          8           0        0.000000    0.000000   -0.076112
      3          6           0        1.228145   -0.000000    0.740653
      4          6           0        0.774032   -0.000000    2.198777
      5          6           0       -0.774032   -0.000000    2.198777
      6          6           0       -1.228145   -0.000000    0.740653
      7          1           0        1.797174    0.899099    0.465438
      8          1           0        1.797174   -0.899099    0.465438
      9          1           0        1.164120    0.886877    2.715092
     10          1           0        1.164120   -0.886877    2.715092
     11          1           0       -1.164120    0.886877    2.715092
     12          1           0       -1.164120   -0.886877    2.715092
     13          1           0       -1.797174    0.899099    0.465438
     14          1           0       -1.797174   -0.899099    0.465438
 ---------------------------------------------------------------------
                    Distance matrix (angstroms):
                    1          2          3          4          5
     1  Mg   0.000000
     2  O    1.958758   0.000000
     3  C    3.035106   1.474939   0.000000
     4  C    4.303823   2.402966   1.527202   0.000000
     5  C    4.303823   2.402966   2.476861   1.548065   0.000000
     6  C    3.035106   1.474939   2.456290   2.476861   1.527202
     7  H    3.207765   2.081223   1.099052   2.204464   3.228613
     8  H    3.207765   2.081223   1.099052   2.204464   3.228613
     9  H    4.970299   3.151594   2.165424   1.097862   2.193073
    10  H    4.970299   3.151594   2.165424   1.097862   2.193073
    11  H    4.970299   3.151594   3.226127   2.193073   1.097862
    12  H    4.970299   3.151594   3.226127   2.193073   1.097862
    13  H    3.207765   2.081223   3.168071   3.228613   2.204464
    14  H    3.207765   2.081223   3.168071   3.228613   2.204464
                    6          7          8          9         10
     6  C    0.000000
     7  H    3.168071   0.000000
     8  H    3.168071   1.798198   0.000000
     9  H    3.226127   2.337060   2.941328   0.000000
    10  H    3.226127   2.941328   2.337060   1.773754   0.000000
    11  H    2.165424   3.718918   4.125520   2.328241   2.926928
    12  H    2.165424   4.125520   3.718918   2.926928   2.328241
    13  H    1.099052   3.594347   4.019061   3.718918   4.125520
    14  H    1.099052   4.019061   3.594347   4.125520   3.718918
                   11         12         13         14
    11  H    0.000000
    12  H    1.773754   0.000000
    13  H    2.337060   2.941328   0.000000
    14  H    2.941328   2.337060   1.798198   0.000000
 Stoichiometry    C4H8MgO(2+)
 Framework group  C2V[C2(OMg),SGV(C4),X(H8)]
 Deg. of freedom    11
 Full point group                 C2V     NOp   4
 RotChk:  IX=0 Diff= 2.38D-16
 Largest Abelian subgroup         C2V     NOp   4
 Largest concise Abelian subgroup C2V     NOp   4
                         Standard orientation:                         
 ---------------------------------------------------------------------
 Center     Atomic      Atomic             Coordinates (Angstroms)
 Number     Number       Type             X           Y           Z
 ---------------------------------------------------------------------
      1         12           0       -0.000000   -0.000000    2.476561
      2          8           0       -0.000000   -0.000000    0.517803
      3          6           0       -0.000000    1.228145   -0.298962
      4          6           0       -0.000000    0.774032   -1.757086
      5          6           0       -0.000000   -0.774032   -1.757086
      6          6           0       -0.000000   -1.228145   -0.298962
      7          1           0        0.899099    1.797174   -0.023747
      8          1           0       -0.899099    1.797174   -0.023747
      9          1           0        0.886877    1.164120   -2.273401
     10          1           0       -0.886877    1.164120   -2.273401
     11          1           0        0.886877   -1.164120   -2.273401
     12          1           0       -0.886877   -1.164120   -2.273401
     13          1           0        0.899099   -1.797174   -0.023747
     14          1           0       -0.899099   -1.797174   -0.023747
 ---------------------------------------------------------------------
 Rotational constants (GHZ):           6.6944364           1.9893046           1.5958605
 Leave Link  202 at Wed Jun 24 00:00:57 2026, MaxMem=  1879048192 cpu:               0.0 elap:               0.0
 (Enter /CH/g16/l601.exe)
 Copying SCF densities to generalized density rwf, IOpCl= 0 IROHF=0.

 **********************************************************************

            Population analysis using the SCF Density.

 **********************************************************************

 Orbital symmetries:
       Occupied  (A1) (A1) (B2) (A1) (B2) (A1) (A1) (B2) (B1) (A1)
                 (A1) (A1) (B2) (A1) (B2) (A1) (B1) (B2) (A2) (B1)
                 (A1) (B2) (A1) (A2) (B1)
       Virtual   (A1) (B2) (B1) (A1) (A1) (B1) (A1) (B2) (B2) (A1)
                 (A2) (B2) (A1) (B1) (A1) (A2) (B2) (A1) (A2) (B1)
                 (B1) (B2) (B2) (A1) (B2) (A1) (B1) (A1) (B2) (A1)
                 (A2) (A1) (B2) (B1) (B2) (A1) (A1) (B2) (B1) (A2)
                 (A1) (B2) (B1) (A2) (A1) (B2) (A2) (B2) (A1) (B1)
                 (A1) (B2) (B2) (B1) (A2) (A2) (B1) (A1) (A1) (B2)
                 (B1) (A1) (A2) (A1) (B2) (B1) (A2) (A1) (B2) (B1)
                 (A1) (B1) (A2) (B2) (B2) (B1) (A1) (A2) (A1) (A2)
                 (B2) (A1) (B2) (A1) (B2) (B1) (A1) (A2) (B2) (A1)
                 (B1) (B2) (B2) (A1) (B1) (A2) (A1) (B2) (A2) (B1)
                 (A2) (A1) (B2)
 The electronic state is 1-A1.
 Alpha  occ. eigenvalues --  -47.02297 -19.24786 -10.29219 -10.29217 -10.22568
 Alpha  occ. eigenvalues --  -10.22567  -3.28578  -2.03309  -2.03259  -2.03107
 Alpha  occ. eigenvalues --   -1.10579  -0.82230  -0.79471  -0.64595  -0.64079
 Alpha  occ. eigenvalues --   -0.56976  -0.55468  -0.49661  -0.48203  -0.46063
 Alpha  occ. eigenvalues --   -0.43192  -0.40381  -0.40280  -0.36061  -0.34817
 Alpha virt. eigenvalues --   -0.13345  -0.02571  -0.02459  -0.00286   0.03043
 Alpha virt. eigenvalues --    0.05094   0.05576   0.06504   0.07465   0.07648
 Alpha virt. eigenvalues --    0.08230   0.12557   0.12854   0.13661   0.15565
 Alpha virt. eigenvalues --    0.17096   0.18998   0.19475   0.21262   0.21689
 Alpha virt. eigenvalues --    0.23764   0.24666   0.27025   0.28886   0.30564
 Alpha virt. eigenvalues --    0.34362   0.35460   0.43224   0.44914   0.45497
 Alpha virt. eigenvalues --    0.48036   0.48310   0.51551   0.56623   0.57250
 Alpha virt. eigenvalues --    0.60191   0.61376   0.61626   0.61903   0.63371
 Alpha virt. eigenvalues --    0.64767   0.66916   0.67430   0.67974   0.68535
 Alpha virt. eigenvalues --    0.69817   0.82669   0.83418   0.87356   0.94795
 Alpha virt. eigenvalues --    0.97131   1.13703   1.30502   1.31329   1.31765
 Alpha virt. eigenvalues --    1.32789   1.35609   1.38032   1.47051   1.51208
 Alpha virt. eigenvalues --    1.60309   1.63008   1.66525   1.69798   1.70979
 Alpha virt. eigenvalues --    1.71288   1.73661   1.74940   1.77687   1.77899
 Alpha virt. eigenvalues --    1.79044   1.80650   1.82191   1.84554   1.92933
 Alpha virt. eigenvalues --    1.95249   1.95886   1.96962   2.09019   2.11389
 Alpha virt. eigenvalues --    2.14852   2.19212   2.25057   2.28886   2.28925
 Alpha virt. eigenvalues --    2.33569   2.44661   2.54735   2.59026   2.63169
 Alpha virt. eigenvalues --    2.69571   2.70586   2.73326   2.78640   2.82346
 Alpha virt. eigenvalues --    2.83597   2.86986   2.91357   2.92396   2.96062
 Alpha virt. eigenvalues --    3.04755   3.12821   3.31077
          Condensed to atoms (all electrons):
               1          2          3          4          5          6
     1  Mg  10.104265   0.200001  -0.009041   0.003484   0.003484  -0.009041
     2  O    0.200001   8.174140   0.211216  -0.037729  -0.037729   0.211216
     3  C   -0.009041   0.211216   4.478155   0.440945  -0.058697  -0.057773
     4  C    0.003484  -0.037729   0.440945   4.534830   0.437173  -0.058697
     5  C    0.003484  -0.037729  -0.058697   0.437173   4.534830   0.440945
     6  C   -0.009041   0.211216  -0.057773  -0.058697   0.440945   4.478155
     7  H    0.000445  -0.027113   0.380986  -0.006836   0.000596   0.005137
     8  H    0.000445  -0.027113   0.380986  -0.006836   0.000596   0.005137
     9  H    0.000016   0.001869  -0.006363   0.361708  -0.004909   0.002503
    10  H    0.000016   0.001869  -0.006363   0.361708  -0.004909   0.002503
    11  H    0.000016   0.001869   0.002503  -0.004909   0.361708  -0.006363
    12  H    0.000016   0.001869   0.002503  -0.004909   0.361708  -0.006363
    13  H    0.000445  -0.027113   0.005137   0.000596  -0.006836   0.380986
    14  H    0.000445  -0.027113   0.005137   0.000596  -0.006836   0.380986
               7          8          9         10         11         12
     1  Mg   0.000445   0.000445   0.000016   0.000016   0.000016   0.000016
     2  O   -0.027113  -0.027113   0.001869   0.001869   0.001869   0.001869
     3  C    0.380986   0.380986  -0.006363  -0.006363   0.002503   0.002503
     4  C   -0.006836  -0.006836   0.361708   0.361708  -0.004909  -0.004909
     5  C    0.000596   0.000596  -0.004909  -0.004909   0.361708   0.361708
     6  C    0.005137   0.005137   0.002503   0.002503  -0.006363  -0.006363
     7  H    0.622150  -0.037910  -0.016070   0.005179   0.000224  -0.000279
     8  H   -0.037910   0.622150   0.005179  -0.016070  -0.000279   0.000224
     9  H   -0.016070   0.005179   0.643888  -0.025138  -0.018343   0.005303
    10  H    0.005179  -0.016070  -0.025138   0.643888   0.005303  -0.018343
    11  H    0.000224  -0.000279  -0.018343   0.005303   0.643888  -0.025138
    12  H   -0.000279   0.000224   0.005303  -0.018343  -0.025138   0.643888
    13  H    0.000493  -0.000601   0.000224  -0.000279  -0.016070   0.005179
    14  H   -0.000601   0.000493  -0.000279   0.000224   0.005179  -0.016070
              13         14
     1  Mg   0.000445   0.000445
     2  O   -0.027113  -0.027113
     3  C    0.005137   0.005137
     4  C    0.000596   0.000596
     5  C   -0.006836  -0.006836
     6  C    0.380986   0.380986
     7  H    0.000493  -0.000601
     8  H   -0.000601   0.000493
     9  H    0.000224  -0.000279
    10  H   -0.000279   0.000224
    11  H   -0.016070   0.005179
    12  H    0.005179  -0.016070
    13  H    0.622150  -0.037910
    14  H   -0.037910   0.622150
 Mulliken charges:
               1
     1  Mg   1.705004
     2  O   -0.620139
     3  C    0.230669
     4  C   -0.021125
     5  C   -0.021125
     6  C    0.230669
     7  H    0.073599
     8  H    0.073599
     9  H    0.050412
    10  H    0.050412
    11  H    0.050412
    12  H    0.050412
    13  H    0.073599
    14  H    0.073599
 Sum of Mulliken charges =   2.00000
 Mulliken charges with hydrogens summed into heavy atoms:
               1
     1  Mg   1.705004
     2  O   -0.620139
     3  C    0.377868
     4  C    0.079700
     5  C    0.079700
     6  C    0.377868
 Electronic spatial extent (au):  <R**2>=            684.1781
 Charge=              2.0000 electrons
 Dipole moment (field-independent basis, Debye):
    X=              0.0000    Y=             -0.0000    Z=             18.1646  Tot=             18.1646
 Quadrupole moment (field-independent basis, Debye-Ang):
   XX=            -31.5736   YY=            -27.5034   ZZ=             25.2702
   XY=             -0.0000   XZ=             -0.0000   YZ=              0.0000
 Traceless Quadrupole moment (field-independent basis, Debye-Ang):
   XX=            -20.3047   YY=            -16.2345   ZZ=             36.5392
   XY=             -0.0000   XZ=             -0.0000   YZ=              0.0000
 Octapole moment (field-independent basis, Debye-Ang**2):
  XXX=             -0.0000  YYY=             -0.0000  ZZZ=            187.0868  XYY=             -0.0000
  XXY=             -0.0000  XXZ=             14.8268  XZZ=              0.0000  YZZ=             -0.0000
  YYZ=             14.9718  XYZ=              0.0000
 Hexadecapole moment (field-independent basis, Debye-Ang**3):
 XXXX=            -54.5125 YYYY=           -219.4371 ZZZZ=            -35.3979 XXXY=             -0.0000
 XXXZ=              0.0000 YYYX=             -0.0000 YYYZ=              0.0000 ZZZX=             -0.0000
 ZZZY=              0.0000 XXYY=            -40.9306 XXZZ=            -71.5866 YYZZ=           -102.7785
 XXYZ=              0.0000 YYXZ=              0.0000 ZZXY=             -0.0000
 N-N= 2.689261374824D+02 E-N=-1.535093865486D+03  KE= 4.280190498671D+02
 Symmetry A1   KE= 3.088656003949D+02
 Symmetry A2   KE= 4.239449289810D+00
 Symmetry B1   KE= 2.398476658505D+01
 Symmetry B2   KE= 9.092923359727D+01
 No NMR shielding tensors so no spin-rotation constants.
 Leave Link  601 at Wed Jun 24 00:00:57 2026, MaxMem=  1879048192 cpu:               0.3 elap:               0.1
 (Enter /CH/g16/l9999.exe)
 Unable to Open any file for archive entry.
 1\1\GINC-NODE0-CHCLUSTER\FOpt\RB3LYP\def2SVP\C4H8Mg1O1(2+)\LS\24-Jun-2
 026\0\\#p B3LYP/def2SVP EmpiricalDispersion=GD3BJ opt SCRF=(SMD,Solven
 t=Tetrahydrofuran) int=ultrafine\\Mg_THF\\2,1\Mg,0.,0.,-2.0348699915\O
 ,0.,0.,-0.0761119653\C,1.2281452206,0.,0.7406529236\C,0.7740323136,0.,
 2.1987771103\C,-0.7740323136,0.,2.1987771103\C,-1.2281452206,0.,0.7406
 529236\H,1.797173716,0.8990987753,0.4654383363\H,1.797173716,-0.899098
 7753,0.4654383363\H,1.1641204382,0.8868770094,2.7150921328\H,1.1641204
 382,-0.8868770094,2.7150921328\H,-1.1641204382,0.8868770094,2.71509213
 28\H,-1.1641204382,-0.8868770094,2.7150921328\H,-1.797173716,0.8990987
 753,0.4654383363\H,-1.797173716,-0.8990987753,0.4654383363\\Version=ES
 64L-G16RevC.02\State=1-A1\HF=-432.0505244\RMSD=8.365e-09\RMSF=7.900e-0
 5\Dipole=0.,0.,-7.1465039\Quadrupole=-12.0699335,-15.0960427,27.165976
 3,0.,0.,0.\PG=C02V [C2(O1Mg1),SGV(C4),X(H8)]\\@
 The archive entry for this job was punched.


 HIGGLEDY-PIGGLEDY
 NIC'LAUS COPERNICUS
 LOOKED AT THE UNIVERSE,
 SPOKE TO THE THRONG;
 GIVE UP YOUR PTOLOMY,
 RISE UP AND FOLLOW ME,
 HELIOCENTRICALLY
 PTOLEMY'S WRONG.
   -- NANCY L. STARK
 Job cpu time:       0 days  0 hours  1 minutes 44.3 seconds.
 Elapsed time:       0 days  0 hours  0 minutes 15.9 seconds.
 File lengths (MBytes):  RWF=     53 Int=      0 D2E=      0 Chk=      4 Scr=      1
 Normal termination of Gaussian 16 at Wed Jun 24 00:00:57 2026.
