 Entering Gaussian System, Link 0=/CH/g16/g16
 Initial command:
 /CH/g16/l1.exe "/tmp/g16_THF_2866645/Gau-2866658.inp" -scrdir="/tmp/g16_THF_2866645/"
 Default is to use a total of  96 processors:
                               96 via shared-memory
                                1 via Linda
 Entering Link 1 = /CH/g16/l1.exe PID=   2866664.
  
 Copyright (c) 1988-2021, Gaussian, Inc.  All Rights Reserved.
  
 This is part of the Gaussian(R) 16 program.  It is based on
 the Gaussian(R) 09 system (copyright 2009, Gaussian, Inc.),
 the Gaussian(R) 03 system (copyright 2003, Gaussian, Inc.),
 the Gaussian(R) 98 system (copyright 1998, Gaussian, Inc.),
 the Gaussian(R) 94 system (copyright 1995, Gaussian, Inc.),
 the Gaussian 92(TM) system (copyright 1992, Gaussian, Inc.),
 the Gaussian 90(TM) system (copyright 1990, Gaussian, Inc.),
 the Gaussian 88(TM) system (copyright 1988, Gaussian, Inc.),
 the Gaussian 86(TM) system (copyright 1986, Carnegie Mellon
 University), and the Gaussian 82(TM) system (copyright 1983,
 Carnegie Mellon University). Gaussian is a federally registered
 trademark of Gaussian, Inc.
  
 This software contains proprietary and confidential information,
 including trade secrets, belonging to Gaussian, Inc.
  
 This software is provided under written license and may be
 used, copied, transmitted, or stored only in accord with that
 written license.
  
 The following legend is applicable only to US Government
 contracts under FAR:
  
                    RESTRICTED RIGHTS LEGEND
  
 Use, reproduction and disclosure by the US Government is
 subject to restrictions as set forth in subparagraphs (a)
 and (c) of the Commercial Computer Software - Restricted
 Rights clause in FAR 52.227-19.
  
 Gaussian, Inc.
 340 Quinnipiac St., Bldg. 40, Wallingford CT 06492
  
  
 ---------------------------------------------------------------
 Warning -- This program may not be used in any manner that
 competes with the business of Gaussian, Inc. or will provide
 assistance to any competitor of Gaussian, Inc.  The licensee
 of this program is prohibited from giving any competitor of
 Gaussian, Inc. access to this program.  By using this program,
 the user acknowledges that Gaussian, Inc. is engaged in the
 business of creating and licensing software in the field of
 computational chemistry and represents and warrants to the
 licensee that it is not a competitor of Gaussian, Inc. and that
 it will not use this program in any manner prohibited above.
 ---------------------------------------------------------------
  

 Cite this work as:
 Gaussian 16, Revision C.02,
 M. J. Frisch, G. W. Trucks, H. B. Schlegel, G. E. Scuseria, 
 M. A. Robb, J. R. Cheeseman, G. Scalmani, V. Barone, 
 G. A. Petersson, H. Nakatsuji, X. Li, M. Caricato, A. V. Marenich, 
 J. Bloino, B. G. Janesko, R. Gomperts, B. Mennucci, H. P. Hratchian, 
 J. V. Ortiz, A. F. Izmaylov, J. L. Sonnenberg, D. Williams-Young, 
 F. Ding, F. Lipparini, F. Egidi, J. Goings, B. Peng, A. Petrone, 
 T. Henderson, D. Ranasinghe, V. G. Zakrzewski, J. Gao, N. Rega, 
 G. Zheng, W. Liang, M. Hada, M. Ehara, K. Toyota, R. Fukuda, 
 J. Hasegawa, M. Ishida, T. Nakajima, Y. Honda, O. Kitao, H. Nakai, 
 T. Vreven, K. Throssell, J. A. Montgomery, Jr., J. E. Peralta, 
 F. Ogliaro, M. J. Bearpark, J. J. Heyd, E. N. Brothers, K. N. Kudin, 
 V. N. Staroverov, T. A. Keith, R. Kobayashi, J. Normand, 
 K. Raghavachari, A. P. Rendell, J. C. Burant, S. S. Iyengar, 
 J. Tomasi, M. Cossi, J. M. Millam, M. Klene, C. Adamo, R. Cammi, 
 J. W. Ochterski, R. L. Martin, K. Morokuma, O. Farkas, 
 J. B. Foresman, and D. J. Fox, Gaussian, Inc., Wallingford CT, 2019.
 
 ******************************************
 Gaussian 16:  ES64L-G16RevC.02  7-Dec-2021
                24-Jun-2026 
 ******************************************
 %chk=THF.chk
 %nprocshared=8
 Will use up to    8 processors via shared memory.
 %mem=14GB
 ----------------------------------------------------------------------
 #p B3LYP/def2SVP EmpiricalDispersion=GD3BJ opt SCRF=(SMD,Solvent=Tetra
 hydrofuran) int=ultrafine
 ----------------------------------------------------------------------
 1/18=20,19=15,26=6,38=1/1,3;
 2/9=110,12=2,17=6,18=5,40=1/2;
 3/5=43,7=101,11=2,25=1,30=1,70=32201,71=1,72=20,74=-5,75=-5,124=41/1,2,3;
 4//1;
 5/5=2,38=5,53=20/2;
 6/7=2,8=2,9=2,10=2,28=1/1;
 7//1,2,3,16;
 1/18=20,19=15,26=6/3(2);
 2/9=110/2;
 99//99;
 2/9=110/2;
 3/5=43,7=101,11=2,25=1,30=1,70=32205,71=1,72=20,74=-5,75=-5,124=41/1,2,3;
 4/5=5,16=3,69=1/1;
 5/5=2,38=5,53=20/2;
 7//1,2,3,16;
 1/18=20,19=15,26=6/3(-5);
 2/9=110/2;
 6/7=2,8=2,9=2,10=2,19=2,28=1/1;
 99/9=1/99;
 Leave Link    1 at Wed Jun 24 00:00:40 2026, MaxMem=  1879048192 cpu:               4.3 elap:               0.1
 (Enter /CH/g16/l101.exe)
 ---
 THF
 ---
 Symbolic Z-matrix:
 Charge =  0 Multiplicity = 1
 O                     0.        0.        0. 
 C                     1.18      0.        0.74 
 C                     0.74      0.        2.13 
 C                    -0.74      0.        2.13 
 C                    -1.18      0.        0.74 
 H                     1.78      0.89      0.5 
 H                     1.78     -0.89      0.5 
 H                     1.2       0.89      2.7 
 H                     1.2      -0.89      2.7 
 H                    -1.2       0.89      2.7 
 H                    -1.2      -0.89      2.7 
 H                    -1.78      0.89      0.5 
 H                    -1.78     -0.89      0.5 
 
 ITRead=  0  0  0  0  0  0  0  0  0  0  0  0  0
 MicOpt= -1 -1 -1 -1 -1 -1 -1 -1 -1 -1 -1 -1 -1
 NAtoms=     13 NQM=       13 NQMF=       0 NMMI=      0 NMMIF=      0
                NMic=       0 NMicF=      0.
                    Isotopes and Nuclear Properties:
 (Nuclear quadrupole moments (NQMom) in fm**2, nuclear magnetic moments (NMagM)
  in nuclear magnetons)

  Atom         1           2           3           4           5           6           7           8           9          10
 IAtWgt=          16          12          12          12          12           1           1           1           1           1
 AtmWgt=  15.9949146  12.0000000  12.0000000  12.0000000  12.0000000   1.0078250   1.0078250   1.0078250   1.0078250   1.0078250
 NucSpn=           0           0           0           0           0           1           1           1           1           1
 AtZEff=  -0.0000000  -0.0000000  -0.0000000  -0.0000000  -0.0000000  -0.0000000  -0.0000000  -0.0000000  -0.0000000  -0.0000000
 NQMom=    0.0000000   0.0000000   0.0000000   0.0000000   0.0000000   0.0000000   0.0000000   0.0000000   0.0000000   0.0000000
 NMagM=    0.0000000   0.0000000   0.0000000   0.0000000   0.0000000   2.7928460   2.7928460   2.7928460   2.7928460   2.7928460
 AtZNuc=   8.0000000   6.0000000   6.0000000   6.0000000   6.0000000   1.0000000   1.0000000   1.0000000   1.0000000   1.0000000

  Atom        11          12          13
 IAtWgt=           1           1           1
 AtmWgt=   1.0078250   1.0078250   1.0078250
 NucSpn=           1           1           1
 AtZEff=  -0.0000000  -0.0000000  -0.0000000
 NQMom=    0.0000000   0.0000000   0.0000000
 NMagM=    2.7928460   2.7928460   2.7928460
 AtZNuc=   1.0000000   1.0000000   1.0000000
 Leave Link  101 at Wed Jun 24 00:00:41 2026, MaxMem=  1879048192 cpu:               0.4 elap:               0.4
 (Enter /CH/g16/l103.exe)

 GradGradGradGradGradGradGradGradGradGradGradGradGradGradGradGradGradGrad
 Berny optimization.
 Initialization pass.
                           ----------------------------
                           !    Initial Parameters    !
                           ! (Angstroms and Degrees)  !
 --------------------------                            --------------------------
 ! Name  Definition              Value          Derivative Info.                !
 --------------------------------------------------------------------------------
 ! R1    R(1,2)                  1.3928         estimate D2E/DX2                !
 ! R2    R(1,5)                  1.3928         estimate D2E/DX2                !
 ! R3    R(2,3)                  1.458          estimate D2E/DX2                !
 ! R4    R(2,6)                  1.0999         estimate D2E/DX2                !
 ! R5    R(2,7)                  1.0999         estimate D2E/DX2                !
 ! R6    R(3,4)                  1.48           estimate D2E/DX2                !
 ! R7    R(3,8)                  1.1526         estimate D2E/DX2                !
 ! R8    R(3,9)                  1.1526         estimate D2E/DX2                !
 ! R9    R(4,5)                  1.458          estimate D2E/DX2                !
 ! R10   R(4,10)                 1.1526         estimate D2E/DX2                !
 ! R11   R(4,11)                 1.1526         estimate D2E/DX2                !
 ! R12   R(5,12)                 1.0999         estimate D2E/DX2                !
 ! R13   R(5,13)                 1.0999         estimate D2E/DX2                !
 ! A1    A(2,1,5)              115.8148         estimate D2E/DX2                !
 ! A2    A(1,2,3)              104.5276         estimate D2E/DX2                !
 ! A3    A(1,2,6)              110.2569         estimate D2E/DX2                !
 ! A4    A(1,2,7)              110.2569         estimate D2E/DX2                !
 ! A5    A(3,2,6)              111.8802         estimate D2E/DX2                !
 ! A6    A(3,2,7)              111.8802         estimate D2E/DX2                !
 ! A7    A(6,2,7)              108.034          estimate D2E/DX2                !
 ! A8    A(2,3,4)              107.565          estimate D2E/DX2                !
 ! A9    A(2,3,8)              110.5496         estimate D2E/DX2                !
 ! A10   A(2,3,9)              110.5496         estimate D2E/DX2                !
 ! A11   A(4,3,8)              113.5207         estimate D2E/DX2                !
 ! A12   A(4,3,9)              113.5207         estimate D2E/DX2                !
 ! A13   A(8,3,9)              101.0919         estimate D2E/DX2                !
 ! A14   A(3,4,5)              107.565          estimate D2E/DX2                !
 ! A15   A(3,4,10)             113.5207         estimate D2E/DX2                !
 ! A16   A(3,4,11)             113.5207         estimate D2E/DX2                !
 ! A17   A(5,4,10)             110.5496         estimate D2E/DX2                !
 ! A18   A(5,4,11)             110.5496         estimate D2E/DX2                !
 ! A19   A(10,4,11)            101.0919         estimate D2E/DX2                !
 ! A20   A(1,5,4)              104.5276         estimate D2E/DX2                !
 ! A21   A(1,5,12)             110.2569         estimate D2E/DX2                !
 ! A22   A(1,5,13)             110.2569         estimate D2E/DX2                !
 ! A23   A(4,5,12)             111.8802         estimate D2E/DX2                !
 ! A24   A(4,5,13)             111.8802         estimate D2E/DX2                !
 ! A25   A(12,5,13)            108.034          estimate D2E/DX2                !
 ! D1    D(5,1,2,3)              0.0            estimate D2E/DX2                !
 ! D2    D(5,1,2,6)           -120.3971         estimate D2E/DX2                !
 ! D3    D(5,1,2,7)            120.3971         estimate D2E/DX2                !
 ! D4    D(2,1,5,4)              0.0            estimate D2E/DX2                !
 ! D5    D(2,1,5,12)           120.3971         estimate D2E/DX2                !
 ! D6    D(2,1,5,13)          -120.3971         estimate D2E/DX2                !
 ! D7    D(1,2,3,4)              0.0            estimate D2E/DX2                !
 ! D8    D(1,2,3,8)           -124.4515         estimate D2E/DX2                !
 ! D9    D(1,2,3,9)            124.4515         estimate D2E/DX2                !
 ! D10   D(6,2,3,4)            119.3074         estimate D2E/DX2                !
 ! D11   D(6,2,3,8)             -5.1441         estimate D2E/DX2                !
 ! D12   D(6,2,3,9)           -116.2411         estimate D2E/DX2                !
 ! D13   D(7,2,3,4)           -119.3074         estimate D2E/DX2                !
 ! D14   D(7,2,3,8)            116.2411         estimate D2E/DX2                !
 ! D15   D(7,2,3,9)              5.1441         estimate D2E/DX2                !
 ! D16   D(2,3,4,5)              0.0            estimate D2E/DX2                !
 ! D17   D(2,3,4,10)          -122.6375         estimate D2E/DX2                !
 ! D18   D(2,3,4,11)           122.6375         estimate D2E/DX2                !
 ! D19   D(8,3,4,5)            122.6375         estimate D2E/DX2                !
 ! D20   D(8,3,4,10)             0.0            estimate D2E/DX2                !
 ! D21   D(8,3,4,11)          -114.725          estimate D2E/DX2                !
 ! D22   D(9,3,4,5)           -122.6375         estimate D2E/DX2                !
 ! D23   D(9,3,4,10)           114.725          estimate D2E/DX2                !
 ! D24   D(9,3,4,11)             0.0            estimate D2E/DX2                !
 ! D25   D(3,4,5,1)              0.0            estimate D2E/DX2                !
 ! D26   D(3,4,5,12)          -119.3074         estimate D2E/DX2                !
 ! D27   D(3,4,5,13)           119.3074         estimate D2E/DX2                !
 ! D28   D(10,4,5,1)           124.4515         estimate D2E/DX2                !
 ! D29   D(10,4,5,12)            5.1441         estimate D2E/DX2                !
 ! D30   D(10,4,5,13)         -116.2411         estimate D2E/DX2                !
 ! D31   D(11,4,5,1)          -124.4515         estimate D2E/DX2                !
 ! D32   D(11,4,5,12)          116.2411         estimate D2E/DX2                !
 ! D33   D(11,4,5,13)           -5.1441         estimate D2E/DX2                !
 --------------------------------------------------------------------------------
 Trust Radius=3.00D-01 FncErr=5.00D-06 GrdErr=5.00D-06 EigMax=2.50D+02 EigMin=1.00D-04
 Number of steps in this run=     81 maximum allowed number of steps=    100.
 GradGradGradGradGradGradGradGradGradGradGradGradGradGradGradGradGradGrad

 Leave Link  103 at Wed Jun 24 00:00:41 2026, MaxMem=  1879048192 cpu:               0.0 elap:               0.0
 (Enter /CH/g16/l202.exe)
                          Input orientation:                          
 ---------------------------------------------------------------------
 Center     Atomic      Atomic             Coordinates (Angstroms)
 Number     Number       Type             X           Y           Z
 ---------------------------------------------------------------------
      1          8           0        0.000000    0.000000    0.000000
      2          6           0        1.180000    0.000000    0.740000
      3          6           0        0.740000    0.000000    2.130000
      4          6           0       -0.740000    0.000000    2.130000
      5          6           0       -1.180000    0.000000    0.740000
      6          1           0        1.780000    0.890000    0.500000
      7          1           0        1.780000   -0.890000    0.500000
      8          1           0        1.200000    0.890000    2.700000
      9          1           0        1.200000   -0.890000    2.700000
     10          1           0       -1.200000    0.890000    2.700000
     11          1           0       -1.200000   -0.890000    2.700000
     12          1           0       -1.780000    0.890000    0.500000
     13          1           0       -1.780000   -0.890000    0.500000
 ---------------------------------------------------------------------
                    Distance matrix (angstroms):
                    1          2          3          4          5
     1  O    0.000000
     2  C    1.392839   0.000000
     3  C    2.254884   1.457978   0.000000
     4  C    2.254884   2.370338   1.480000   0.000000
     5  C    1.392839   2.360000   2.370338   1.457978   0.000000
     6  H    2.051950   1.099864   2.128521   3.130399   3.100210
     7  H    2.051950   1.099864   2.128521   3.130399   3.100210
     8  H    3.085790   2.152696   1.152649   2.209208   3.209065
     9  H    3.085790   2.152696   1.152649   2.209208   3.209065
    10  H    3.085790   3.209065   2.209208   1.152649   2.152696
    11  H    3.085790   3.209065   2.209208   1.152649   2.152696
    12  H    2.051950   3.100210   3.130399   2.128521   1.099864
    13  H    2.051950   3.100210   3.130399   2.128521   1.099864
                    6          7          8          9         10
     6  H    0.000000
     7  H    1.780000   0.000000
     8  H    2.275170   2.888737   0.000000
     9  H    2.888737   2.275170   1.780000   0.000000
    10  H    3.704106   4.109599   2.400000   2.988043   0.000000
    11  H    4.109599   3.704106   2.988043   2.400000   1.780000
    12  H    3.560000   3.980201   3.704106   4.109599   2.275170
    13  H    3.980201   3.560000   4.109599   3.704106   2.888737
                   11         12         13
    11  H    0.000000
    12  H    2.888737   0.000000
    13  H    2.275170   1.780000   0.000000
 Stoichiometry    C4H8O
 Framework group  C2V[C2(O),SGV(C4),X(H8)]
 Deg. of freedom    10
 Full point group                 C2V     NOp   4
 Largest Abelian subgroup         C2V     NOp   4
 Largest concise Abelian subgroup C2V     NOp   4
                         Standard orientation:                         
 ---------------------------------------------------------------------
 Center     Atomic      Atomic             Coordinates (Angstroms)
 Number     Number       Type             X           Y           Z
 ---------------------------------------------------------------------
      1          8           0       -0.000000    0.000000    1.181000
      2          6           0       -0.000000    1.180000    0.441000
      3          6           0        0.000000    0.740000   -0.949000
      4          6           0       -0.000000   -0.740000   -0.949000
      5          6           0       -0.000000   -1.180000    0.441000
      6          1           0        0.890000    1.780000    0.681000
      7          1           0       -0.890000    1.780000    0.681000
      8          1           0        0.890000    1.200000   -1.519000
      9          1           0       -0.890000    1.200000   -1.519000
     10          1           0        0.890000   -1.200000   -1.519000
     11          1           0       -0.890000   -1.200000   -1.519000
     12          1           0        0.890000   -1.780000    0.681000
     13          1           0       -0.890000   -1.780000    0.681000
 ---------------------------------------------------------------------
 Rotational constants (GHZ):           7.6577547           7.0658435           4.0512261
 Leave Link  202 at Wed Jun 24 00:00:41 2026, MaxMem=  1879048192 cpu:               0.0 elap:               0.0
 (Enter /CH/g16/l301.exe)
 Standard basis: def2SVP (5D, 7F)
 Ernie: Thresh=  0.10000D-02 Tol=  0.10000D-05 Strict=F.
 There are    40 symmetry adapted cartesian basis functions of A1  symmetry.
 There are    19 symmetry adapted cartesian basis functions of A2  symmetry.
 There are    21 symmetry adapted cartesian basis functions of B1  symmetry.
 There are    35 symmetry adapted cartesian basis functions of B2  symmetry.
 There are    37 symmetry adapted basis functions of A1  symmetry.
 There are    19 symmetry adapted basis functions of A2  symmetry.
 There are    21 symmetry adapted basis functions of B1  symmetry.
 There are    33 symmetry adapted basis functions of B2  symmetry.
   110 basis functions,   181 primitive gaussians,   115 cartesian basis functions
    20 alpha electrons       20 beta electrons
       nuclear repulsion energy       193.4821177555 Hartrees.
 IExCor=  402 DFT=T Ex+Corr=B3LYP ExCW=0 ScaHFX=  0.200000
 ScaDFX=  0.800000  0.720000  1.000000  0.810000 ScalE2=  1.000000  1.000000
 IRadAn=      5 IRanWt=     -1 IRanGd=            0 ICorTp=0 IEmpDi=141
 NAtoms=   13 NActive=   13 NUniq=    5 SFac= 4.00D+00 NAtFMM=   60 NAOKFM=F Big=F
 Integral buffers will be    131072 words long.
 Raffenetti 2 integral format.
 Two-electron integral symmetry is turned on.
 R6Disp:  Grimme-D3(BJ) Dispersion energy=       -0.0153183470 Hartrees.
 Nuclear repulsion after empirical dispersion term =      193.4667994085 Hartrees.
 ------------------------------------------------------------------------------
 Polarizable Continuum Model (PCM)
 =================================
 Model                : PCM.
 Atomic radii         : SMD-Coulomb.
 Polarization charges : Total charges.
 Charge compensation  : None.
 Solution method      : On-the-fly selection.
 Cavity type          : VdW (van der Waals Surface) (Alpha=1.000).
 Cavity algorithm     : GePol (No added spheres)
                        Default sphere list used, NSphG=   13.
                        Lebedev-Laikov grids with approx.  5.0 points / Ang**2.
                        Smoothing algorithm: York/Karplus (Gamma=1.0000).
                        Polarization charges: spherical gaussians, with
                                              point-specific exponents (IZeta= 3).
                        Self-potential: point-specific (ISelfS= 7).
                        Self-field    : sphere-specific E.n sum rule (ISelfD= 2).
 1st derivatives      : Analytical E(r).r(x)/FMM algorithm (CHGder, D1EAlg=3).
                        Cavity 1st derivative terms included.
 Solvent              : TetraHydroFuran, Eps=   7.425700 Eps(inf)=   1.974025
 ------------------------------------------------------------------------------
 Spheres list:
 ISph  on   Nord     Re0    Alpha      Xe            Ye            Ze
    1   O      1    2.2940  1.000     -0.000000     -0.000000      1.181000
    2   C      2    1.8500  1.000     -0.000000      1.180000      0.441000
    3   C      3    1.8500  1.000      0.000000      0.740000     -0.949000
    4   C      4    1.8500  1.000     -0.000000     -0.740000     -0.949000
    5   C      5    1.8500  1.000     -0.000000     -1.180000      0.441000
    6   H      6    1.2000  1.000      0.890000      1.780000      0.681000
    7   H      7    1.2000  1.000     -0.890000      1.780000      0.681000
    8   H      8    1.2000  1.000      0.890000      1.200000     -1.519000
    9   H      9    1.2000  1.000     -0.890000      1.200000     -1.519000
   10   H     10    1.2000  1.000      0.890000     -1.200000     -1.519000
   11   H     11    1.2000  1.000     -0.890000     -1.200000     -1.519000
   12   H     12    1.2000  1.000      0.890000     -1.780000      0.681000
   13   H     13    1.2000  1.000     -0.890000     -1.780000      0.681000
 ------------------------------------------------------------------------------
 GePol: Number of generator spheres                  =      13
 GePol: Total number of spheres                      =      13
 GePol: Number of exposed spheres                    =      13 (100.00%)
 GePol: Number of points                             =     997
 GePol: Average weight of points                     =       0.12
 GePol: Minimum weight of points                     =   0.11D-07
 GePol: Maximum weight of points                     =    0.17992
 GePol: Number of points with low weight             =      60
 GePol: Fraction of low-weight points (<1% of avg)   =       6.02%
 GePol: Cavity surface area                          =    115.296 Ang**2
 GePol: Cavity volume                                =     97.686 Ang**3
 ------------------------------------------------------------------------------
 Atomic radii for non-electrostatic terms: SMD-CDS.
 ------------------------------------------------------------------------------
 PCM non-electrostatic energy =        -0.0026516532 Hartrees.
 Nuclear repulsion after PCM non-electrostatic terms =      193.4641477553 Hartrees.
 Leave Link  301 at Wed Jun 24 00:00:41 2026, MaxMem=  1879048192 cpu:               0.0 elap:               0.0
 (Enter /CH/g16/l302.exe)
 NPDir=0 NMtPBC=     1 NCelOv=     1 NCel=       1 NClECP=     1 NCelD=      1
         NCelK=      1 NCelE2=     1 NClLst=     1 CellRange=     0.0.
 One-electron integrals computed using PRISM.
 One-electron integral symmetry used in STVInt
   4 Symmetry operations used in ECPInt.
 ECPInt:  NShTT=    1485 NPrTT=    5139 LenC2=    1486 LenP2D=    4515.
 LDataN:  DoStor=T MaxTD1= 4 Len=   56
 NBasis=   110 RedAO= T EigKep=  8.15D-04  NBF=    37    19    21    33
 NBsUse=   110 1.00D-06 EigRej= -1.00D+00 NBFU=    37    19    21    33
 Precomputing XC quadrature grid using
 IXCGrd= 4 IRadAn=           5 IRanWt=          -1 IRanGd=           0 AccXCQ= 0.00D+00.
 Generated NRdTot=       0 NPtTot=           0 NUsed=           0 NTot=          32
 NSgBfM=   115   115   115   115   115 MxSgAt=    13 MxSgA2=    13.
 Leave Link  302 at Wed Jun 24 00:00:41 2026, MaxMem=  1879048192 cpu:               0.4 elap:               0.1
 (Enter /CH/g16/l303.exe)
 DipDrv:  MaxL=1.
 Leave Link  303 at Wed Jun 24 00:00:41 2026, MaxMem=  1879048192 cpu:               0.1 elap:               0.0
 (Enter /CH/g16/l401.exe)
 ExpMin= 1.22D-01 ExpMax= 2.27D+03 ExpMxC= 3.41D+02 IAcc=3 IRadAn=         5 AccDes= 0.00D+00
 Harris functional with IExCor=  402 and IRadAn=       5 diagonalized for initial guess.
 HarFok:  IExCor=  402 AccDes= 0.00D+00 IRadAn=         5 IDoV= 1 UseB2=F ITyADJ=14
 ICtDFT=  3500011 ScaDFX=  1.000000  1.000000  1.000000  1.000000
 FoFCou: FMM=F IPFlag=           0 FMFlag=      100000 FMFlg1=           0
         NFxFlg=           0 DoJE=T BraDBF=F KetDBF=T FulRan=T
         wScrn=  0.000000 ICntrl=       500 IOpCl=  0 I1Cent=   200000004 NGrid=           0
         NMat0=    1 NMatS0=      1 NMatT0=    0 NMatD0=    1 NMtDS0=    0 NMtDT0=    0
 Petite list used in FoFCou.
 Harris En= -232.280238382692    
 JPrj=0 DoOrth=F DoCkMO=F.
 Initial guess orbital symmetries:
       Occupied  (A1) (A1) (B2) (B2) (A1) (A1) (A1) (B2) (A1) (B2)
                 (A1) (B1) (B2) (A2) (A1) (B1) (B2) (A1) (A2) (B1)
       Virtual   (A1) (B1) (A1) (B2) (A2) (B2) (A1) (B2) (B1) (A1)
                 (A2) (B2) (B2) (B1) (A1) (A1) (B2) (B2) (A1) (A2)
                 (B1) (A1) (B2) (A1) (B2) (A2) (B1) (A1) (B2) (A1)
                 (B2) (B1) (A2) (A2) (B2) (A1) (B1) (A1) (A1) (B2)
                 (A2) (B1) (B1) (B2) (A2) (A1) (B2) (B1) (A1) (B1)
                 (A2) (A1) (A2) (B1) (A1) (B2) (B2) (B1) (A1) (A2)
                 (B2) (B1) (A2) (B2) (A1) (A1) (A2) (A1) (B2) (B2)
                 (B2) (A1) (B1) (A1) (A2) (A1) (B2) (B1) (B2) (B2)
                 (A1) (B1) (A2) (B2) (A1) (B1) (A2) (A2) (A1) (B2)
 The electronic state of the initial guess is 1-A1.
 Leave Link  401 at Wed Jun 24 00:00:41 2026, MaxMem=  1879048192 cpu:               0.6 elap:               0.1
 (Enter /CH/g16/l502.exe)
 Keep R1 ints in memory in symmetry-blocked form, NReq=26169880.
 FoFCou: FMM=F IPFlag=           0 FMFlag=           0 FMFlg1=           0
         NFxFlg=           0 DoJE=F BraDBF=F KetDBF=F FulRan=T
         wScrn=  0.000000 ICntrl=       600 IOpCl=  0 I1Cent=           0 NGrid=           0
         NMat0=    1 NMatS0=   6105 NMatT0=    0 NMatD0=    1 NMtDS0=    0 NMtDT0=    0
 Petite list used in FoFCou.
 Closed shell SCF:
 Using DIIS extrapolation, IDIIS=  1040.
 NGot=  1879048192 LenX=  1874309166 LenY=  1874295500
 Requested convergence on RMS density matrix=1.00D-08 within 128 cycles.
 Requested convergence on MAX density matrix=1.00D-06.
 Requested convergence on             energy=1.00D-06.
 No special actions if energy rises.

 Cycle   1  Pass 1  IDiag  1:
 Inv3:  Mode=1 IEnd=     2982027.
 Iteration    1 A*A^-1 deviation from unit magnitude is 2.89D-15 for     11.
 Iteration    1 A*A^-1 deviation from orthogonality  is 1.92D-15 for    516    171.
 Iteration    1 A^-1*A deviation from unit magnitude is 2.66D-15 for     63.
 Iteration    1 A^-1*A deviation from orthogonality  is 3.44D-15 for    725    703.
 E= -232.137066318643    
 DIIS: error= 3.51D-02 at cycle   1 NSaved=   1.
 NSaved= 1 IEnMin= 1 EnMin= -232.137066318643     IErMin= 1 ErrMin= 3.51D-02
 ErrMax= 3.51D-02  0.00D+00 EMaxC= 1.00D-01 BMatC= 1.21D-01 BMatP= 1.21D-01
 IDIUse=3 WtCom= 6.49D-01 WtEn= 3.51D-01
 Coeff-Com:  0.100D+01
 Coeff-En:   0.100D+01
 Coeff:      0.100D+01
 Gap=     0.244 Goal=   None    Shift=    0.000
 GapD=    0.244 DampG=1.000 DampE=0.500 DampFc=0.5000 IDamp=-1.
 Damping current iteration by 5.00D-01
 RMSDP=8.31D-03 MaxDP=1.34D-01              OVMax= 1.65D-01

 Cycle   2  Pass 1  IDiag  1:
 E= -232.193922697058     Delta-E=       -0.056856378415 Rises=F Damp=T
 DIIS: error= 9.19D-03 at cycle   2 NSaved=   2.
 NSaved= 2 IEnMin= 2 EnMin= -232.193922697058     IErMin= 2 ErrMin= 9.19D-03
 ErrMax= 9.19D-03  0.00D+00 EMaxC= 1.00D-01 BMatC= 7.47D-03 BMatP= 1.21D-01
 IDIUse=3 WtCom= 9.08D-01 WtEn= 9.19D-02
 Coeff-Com:  0.103D+00 0.897D+00
 Coeff-En:   0.160D+00 0.840D+00
 Coeff:      0.109D+00 0.891D+00
 Gap=     0.294 Goal=   None    Shift=    0.000
 RMSDP=1.86D-03 MaxDP=3.60D-02 DE=-5.69D-02 OVMax= 8.84D-02

 Cycle   3  Pass 1  IDiag  1:
 E= -232.271222349088     Delta-E=       -0.077299652030 Rises=F Damp=F
 DIIS: error= 4.25D-03 at cycle   3 NSaved=   3.
 NSaved= 3 IEnMin= 3 EnMin= -232.271222349088     IErMin= 3 ErrMin= 4.25D-03
 ErrMax= 4.25D-03  0.00D+00 EMaxC= 1.00D-01 BMatC= 1.52D-03 BMatP= 7.47D-03
 IDIUse=3 WtCom= 9.58D-01 WtEn= 4.25D-02
 Coeff-Com: -0.370D-03 0.288D+00 0.713D+00
 Coeff-En:   0.000D+00 0.000D+00 0.100D+01
 Coeff:     -0.354D-03 0.275D+00 0.725D+00
 Gap=     0.283 Goal=   None    Shift=    0.000
 RMSDP=3.58D-04 MaxDP=6.54D-03 DE=-7.73D-02 OVMax= 9.68D-03

 Cycle   4  Pass 1  IDiag  1:
 E= -232.272254715869     Delta-E=       -0.001032366781 Rises=F Damp=F
 DIIS: error= 1.37D-03 at cycle   4 NSaved=   4.
 NSaved= 4 IEnMin= 4 EnMin= -232.272254715869     IErMin= 4 ErrMin= 1.37D-03
 ErrMax= 1.37D-03  0.00D+00 EMaxC= 1.00D-01 BMatC= 2.51D-04 BMatP= 1.52D-03
 IDIUse=3 WtCom= 9.86D-01 WtEn= 1.37D-02
 Coeff-Com: -0.280D-02 0.937D-01 0.333D+00 0.576D+00
 Coeff-En:   0.000D+00 0.000D+00 0.000D+00 0.100D+01
 Coeff:     -0.276D-02 0.925D-01 0.329D+00 0.582D+00
 Gap=     0.286 Goal=   None    Shift=    0.000
 RMSDP=1.38D-04 MaxDP=3.91D-03 DE=-1.03D-03 OVMax= 3.96D-03

 Cycle   5  Pass 1  IDiag  1:
 E= -232.272417548118     Delta-E=       -0.000162832250 Rises=F Damp=F
 DIIS: error= 6.25D-04 at cycle   5 NSaved=   5.
 NSaved= 5 IEnMin= 5 EnMin= -232.272417548118     IErMin= 5 ErrMin= 6.25D-04
 ErrMax= 6.25D-04  0.00D+00 EMaxC= 1.00D-01 BMatC= 4.03D-05 BMatP= 2.51D-04
 IDIUse=3 WtCom= 9.94D-01 WtEn= 6.25D-03
 Coeff-Com: -0.213D-02 0.170D-02 0.594D-01 0.311D+00 0.630D+00
 Coeff-En:   0.000D+00 0.000D+00 0.000D+00 0.115D+00 0.885D+00
 Coeff:     -0.212D-02 0.169D-02 0.590D-01 0.310D+00 0.631D+00
 Gap=     0.285 Goal=   None    Shift=    0.000
 RMSDP=4.46D-05 MaxDP=1.18D-03 DE=-1.63D-04 OVMax= 1.11D-03

 Cycle   6  Pass 1  IDiag  1:
 E= -232.272446765631     Delta-E=       -0.000029217512 Rises=F Damp=F
 DIIS: error= 5.20D-05 at cycle   6 NSaved=   6.
 NSaved= 6 IEnMin= 6 EnMin= -232.272446765631     IErMin= 6 ErrMin= 5.20D-05
 ErrMax= 5.20D-05  0.00D+00 EMaxC= 1.00D-01 BMatC= 5.01D-07 BMatP= 4.03D-05
 IDIUse=1 WtCom= 1.00D+00 WtEn= 0.00D+00
 Coeff-Com: -0.930D-03-0.430D-03 0.232D-01 0.135D+00 0.294D+00 0.549D+00
 Coeff:     -0.930D-03-0.430D-03 0.232D-01 0.135D+00 0.294D+00 0.549D+00
 Gap=     0.285 Goal=   None    Shift=    0.000
 RMSDP=7.16D-06 MaxDP=1.38D-04 DE=-2.92D-05 OVMax= 1.56D-04

 Cycle   7  Pass 1  IDiag  1:
 E= -232.272447229909     Delta-E=       -0.000000464278 Rises=F Damp=F
 DIIS: error= 8.78D-06 at cycle   7 NSaved=   7.
 NSaved= 7 IEnMin= 7 EnMin= -232.272447229909     IErMin= 7 ErrMin= 8.78D-06
 ErrMax= 8.78D-06  0.00D+00 EMaxC= 1.00D-01 BMatC= 1.30D-08 BMatP= 5.01D-07
 IDIUse=1 WtCom= 1.00D+00 WtEn= 0.00D+00
 Coeff-Com: -0.280D-05-0.359D-03-0.779D-04 0.373D-02 0.139D-01 0.149D+00
 Coeff-Com:  0.834D+00
 Coeff:     -0.280D-05-0.359D-03-0.779D-04 0.373D-02 0.139D-01 0.149D+00
 Coeff:      0.834D+00
 Gap=     0.285 Goal=   None    Shift=    0.000
 RMSDP=1.16D-06 MaxDP=1.97D-05 DE=-4.64D-07 OVMax= 2.94D-05

 Cycle   8  Pass 1  IDiag  1:
 E= -232.272447243254     Delta-E=       -0.000000013345 Rises=F Damp=F
 DIIS: error= 8.79D-07 at cycle   8 NSaved=   8.
 NSaved= 8 IEnMin= 8 EnMin= -232.272447243254     IErMin= 8 ErrMin= 8.79D-07
 ErrMax= 8.79D-07  0.00D+00 EMaxC= 1.00D-01 BMatC= 8.15D-11 BMatP= 1.30D-08
 IDIUse=1 WtCom= 1.00D+00 WtEn= 0.00D+00
 Coeff-Com:  0.115D-04-0.314D-04-0.365D-03-0.142D-02-0.295D-02 0.936D-02
 Coeff-Com:  0.111D+00 0.885D+00
 Coeff:      0.115D-04-0.314D-04-0.365D-03-0.142D-02-0.295D-02 0.936D-02
 Coeff:      0.111D+00 0.885D+00
 Gap=     0.285 Goal=   None    Shift=    0.000
 RMSDP=1.23D-07 MaxDP=1.49D-06 DE=-1.33D-08 OVMax= 2.46D-06

 Cycle   9  Pass 1  IDiag  1:
 E= -232.272447243340     Delta-E=       -0.000000000086 Rises=F Damp=F
 DIIS: error= 9.45D-08 at cycle   9 NSaved=   9.
 NSaved= 9 IEnMin= 9 EnMin= -232.272447243340     IErMin= 9 ErrMin= 9.45D-08
 ErrMax= 9.45D-08  0.00D+00 EMaxC= 1.00D-01 BMatC= 9.46D-13 BMatP= 8.15D-11
 IDIUse=1 WtCom= 1.00D+00 WtEn= 0.00D+00
 Coeff-Com:  0.592D-06 0.327D-05-0.394D-04-0.202D-03-0.569D-03-0.109D-02
 Coeff-Com: -0.111D-02 0.916D-01 0.911D+00
 Coeff:      0.592D-06 0.327D-05-0.394D-04-0.202D-03-0.569D-03-0.109D-02
 Coeff:     -0.111D-02 0.916D-01 0.911D+00
 Gap=     0.285 Goal=   None    Shift=    0.000
 RMSDP=1.19D-08 MaxDP=1.74D-07 DE=-8.64D-11 OVMax= 2.55D-07

 Cycle  10  Pass 1  IDiag  1:
 E= -232.272447243342     Delta-E=       -0.000000000002 Rises=F Damp=F
 DIIS: error= 1.10D-08 at cycle  10 NSaved=  10.
 NSaved=10 IEnMin=10 EnMin= -232.272447243342     IErMin=10 ErrMin= 1.10D-08
 ErrMax= 1.10D-08  0.00D+00 EMaxC= 1.00D-01 BMatC= 1.09D-14 BMatP= 9.46D-13
 IDIUse=1 WtCom= 1.00D+00 WtEn= 0.00D+00
 Coeff-Com: -0.104D-06 0.640D-06-0.544D-06-0.104D-04-0.332D-04-0.167D-03
 Coeff-Com: -0.797D-03 0.207D-02 0.107D+00 0.892D+00
 Coeff:     -0.104D-06 0.640D-06-0.544D-06-0.104D-04-0.332D-04-0.167D-03
 Coeff:     -0.797D-03 0.207D-02 0.107D+00 0.892D+00
 Gap=     0.285 Goal=   None    Shift=    0.000
 RMSDP=1.50D-09 MaxDP=1.60D-08 DE=-2.07D-12 OVMax= 2.97D-08

 Error on total polarization charges =  0.02836
 SCF Done:  E(RB3LYP) =  -232.272447243     A.U. after   10 cycles
            NFock= 10  Conv=0.15D-08     -V/T= 2.0095
 KE= 2.300970174438D+02 PE=-9.271995125728D+02 EE= 2.713659001304D+02
 SMD-CDS (non-electrostatic) energy       (kcal/mol) =      -1.66
 (included in total energy above)
 Leave Link  502 at Wed Jun 24 00:00:42 2026, MaxMem=  1879048192 cpu:              10.6 elap:               1.5
 (Enter /CH/g16/l601.exe)
 Copying SCF densities to generalized density rwf, IOpCl= 0 IROHF=0.

 **********************************************************************

            Population analysis using the SCF Density.

 **********************************************************************

 Orbital symmetries:
       Occupied  (A1) (A1) (B2) (A1) (B2) (A1) (A1) (B2) (A1) (B2)
                 (B1) (A1) (B2) (A2) (B1) (A1) (B2) (A1) (A2) (B1)
       Virtual   (A1) (B1) (B2) (A1) (A2) (B2) (A1) (B1) (B2) (A2)
                 (A1) (B2) (B2) (B1) (A1) (B2) (A1) (A2) (A1) (B2)
                 (B1) (A1) (B2) (A1) (B2) (B1) (A1) (A2) (A1) (B2)
                 (B1) (B2) (A2) (A2) (B2) (A1) (B1) (A1) (B2) (A1)
                 (A2) (B1) (A2) (B2) (B1) (A1) (B2) (B1) (A1) (B1)
                 (A2) (A2) (A1) (B1) (A1) (B2) (B2) (B1) (A1) (A2)
                 (B2) (B1) (A2) (B2) (A1) (A1) (A2) (A1) (B2) (B2)
                 (B2) (A1) (B1) (A1) (A2) (A1) (B2) (B1) (B2) (B2)
                 (B1) (A1) (A2) (B2) (A1) (B1) (A2) (A2) (A1) (B2)
 The electronic state is 1-A1.
 Alpha  occ. eigenvalues --  -19.10846 -10.21353 -10.21353 -10.17759 -10.17749
 Alpha  occ. eigenvalues --   -1.02876  -0.77309  -0.74095  -0.57744  -0.57736
 Alpha  occ. eigenvalues --   -0.49560  -0.48999  -0.42908  -0.42119  -0.38510
 Alpha  occ. eigenvalues --   -0.36652  -0.35463  -0.29868  -0.28896  -0.23481
 Alpha virt. eigenvalues --    0.05060   0.06413   0.09894   0.11997   0.12113
 Alpha virt. eigenvalues --    0.14174   0.14919   0.17857   0.18721   0.22330
 Alpha virt. eigenvalues --    0.24491   0.31800   0.37870   0.40084   0.44118
 Alpha virt. eigenvalues --    0.48436   0.49522   0.52817   0.53327   0.53706
 Alpha virt. eigenvalues --    0.57873   0.60835   0.61624   0.63064   0.65184
 Alpha virt. eigenvalues --    0.65972   0.66040   0.66116   0.67372   0.69320
 Alpha virt. eigenvalues --    0.70442   0.71329   0.73080   0.83990   0.87598
 Alpha virt. eigenvalues --    0.90508   0.97110   0.98772   1.20098   1.21164
 Alpha virt. eigenvalues --    1.36493   1.39481   1.40108   1.40420   1.40569
 Alpha virt. eigenvalues --    1.54696   1.60564   1.61289   1.68867   1.72922
 Alpha virt. eigenvalues --    1.73061   1.76253   1.78377   1.79830   1.80223
 Alpha virt. eigenvalues --    1.80247   1.82383   1.83638   1.88090   1.88562
 Alpha virt. eigenvalues --    1.90685   1.95218   1.96812   1.98215   2.03063
 Alpha virt. eigenvalues --    2.10742   2.11875   2.15363   2.26930   2.27064
 Alpha virt. eigenvalues --    2.33464   2.34919   2.41512   2.50785   2.60807
 Alpha virt. eigenvalues --    2.62874   2.65518   2.74848   2.76254   2.81466
 Alpha virt. eigenvalues --    2.82006   2.82085   2.89653   2.98813   3.04937
 Alpha virt. eigenvalues --    3.10776   3.11539   3.13077   3.36860   3.50713
          Condensed to atoms (all electrons):
               1          2          3          4          5          6
     1  O    7.971445   0.361203  -0.067197  -0.067197   0.361203  -0.035704
     2  C    0.361203   4.353346   0.435950  -0.064841  -0.092596   0.360728
     3  C   -0.067197   0.435950   4.693020   0.454455  -0.064841  -0.009678
     4  C   -0.067197  -0.064841   0.454455   4.693020   0.435950  -0.000209
     5  C    0.361203  -0.092596  -0.064841   0.435950   4.353346   0.007204
     6  H   -0.035704   0.360728  -0.009678  -0.000209   0.007204   0.756552
     7  H   -0.035704   0.360728  -0.009678  -0.000209   0.007204  -0.057857
     8  H    0.003275  -0.003752   0.331704  -0.006668   0.003561  -0.022270
     9  H    0.003275  -0.003752   0.331704  -0.006668   0.003561   0.007745
    10  H    0.003275   0.003561  -0.006668   0.331704  -0.003752   0.000481
    11  H    0.003275   0.003561  -0.006668   0.331704  -0.003752  -0.000467
    12  H   -0.035704   0.007204  -0.000209  -0.009678   0.360728   0.001855
    13  H   -0.035704   0.007204  -0.000209  -0.009678   0.360728  -0.001278
               7          8          9         10         11         12
     1  O   -0.035704   0.003275   0.003275   0.003275   0.003275  -0.035704
     2  C    0.360728  -0.003752  -0.003752   0.003561   0.003561   0.007204
     3  C   -0.009678   0.331704   0.331704  -0.006668  -0.006668  -0.000209
     4  C   -0.000209  -0.006668  -0.006668   0.331704   0.331704  -0.009678
     5  C    0.007204   0.003561   0.003561  -0.003752  -0.003752   0.360728
     6  H   -0.057857  -0.022270   0.007745   0.000481  -0.000467   0.001855
     7  H    0.756552   0.007745  -0.022270  -0.000467   0.000481  -0.001278
     8  H    0.007745   0.715481  -0.034904  -0.021355   0.007515   0.000481
     9  H   -0.022270  -0.034904   0.715481   0.007515  -0.021355  -0.000467
    10  H   -0.000467  -0.021355   0.007515   0.715481  -0.034904  -0.022270
    11  H    0.000481   0.007515  -0.021355  -0.034904   0.715481   0.007745
    12  H   -0.001278   0.000481  -0.000467  -0.022270   0.007745   0.756552
    13  H    0.001855  -0.000467   0.000481   0.007745  -0.022270  -0.057857
              13
     1  O   -0.035704
     2  C    0.007204
     3  C   -0.000209
     4  C   -0.009678
     5  C    0.360728
     6  H   -0.001278
     7  H    0.001855
     8  H   -0.000467
     9  H    0.000481
    10  H    0.007745
    11  H   -0.022270
    12  H   -0.057857
    13  H    0.756552
 Mulliken charges:
               1
     1  O   -0.429742
     2  C    0.271455
     3  C   -0.081687
     4  C   -0.081687
     5  C    0.271455
     6  H   -0.007102
     7  H   -0.007102
     8  H    0.019653
     9  H    0.019653
    10  H    0.019653
    11  H    0.019653
    12  H   -0.007102
    13  H   -0.007102
 Sum of Mulliken charges =  -0.00000
 Mulliken charges with hydrogens summed into heavy atoms:
               1
     1  O   -0.429742
     2  C    0.257251
     3  C   -0.042380
     4  C   -0.042380
     5  C    0.257251
 Electronic spatial extent (au):  <R**2>=            368.8493
 Charge=             -0.0000 electrons
 Dipole moment (field-independent basis, Debye):
    X=             -0.0000    Y=              0.0000    Z=             -1.8414  Tot=              1.8414
 Quadrupole moment (field-independent basis, Debye-Ang):
   XX=            -30.8361   YY=            -29.1981   ZZ=            -35.3304
   XY=              0.0000   XZ=              0.0000   YZ=             -0.0000
 Traceless Quadrupole moment (field-independent basis, Debye-Ang):
   XX=              0.9521   YY=              2.5901   ZZ=             -3.5422
   XY=              0.0000   XZ=              0.0000   YZ=             -0.0000
 Octapole moment (field-independent basis, Debye-Ang**2):
  XXX=              0.0000  YYY=              0.0000  ZZZ=              0.3456  XYY=             -0.0000
  XXY=              0.0000  XXZ=              1.1158  XZZ=             -0.0000  YZZ=             -0.0000
  YYZ=              2.3929  XYZ=             -0.0000
 Hexadecapole moment (field-independent basis, Debye-Ang**3):
 XXXX=            -59.5049 YYYY=           -232.4019 ZZZZ=           -207.9477 XXXY=             -0.0000
 XXXZ=              0.0000 YYYX=             -0.0000 YYYZ=             -0.0000 ZZZX=             -0.0000
 ZZZY=             -0.0000 XXYY=            -46.1354 XXZZ=            -41.7996 YYZZ=            -71.0740
 XXYZ=             -0.0000 YYXZ=              0.0000 ZZXY=             -0.0000
 N-N= 1.934641477553D+02 E-N=-9.271995123799D+02  KE= 2.300970174438D+02
 Symmetry A1   KE= 1.420372472277D+02
 Symmetry A2   KE= 4.100354072301D+00
 Symmetry B1   KE= 8.466996917250D+00
 Symmetry B2   KE= 7.549241922654D+01
 No NMR shielding tensors so no spin-rotation constants.
 Leave Link  601 at Wed Jun 24 00:00:43 2026, MaxMem=  1879048192 cpu:               0.3 elap:               0.1
 (Enter /CH/g16/l701.exe)
 ... and contract with generalized density number  0.
 Compute integral first derivatives.
 R6Disp: Adding Grimme-D3(BJ) dispersion energy 1st derivatives to the gradient.
   4 Symmetry operations used in ECPInt.
 ECPInt:  NShTT=    1485 NPrTT=    5139 LenC2=    1486 LenP2D=    4515.
 LDataN:  DoStor=T MaxTD1= 5 Len=  102
 D1PCM: PCM CHGder 1st derivatives, ID1Alg=3 FixD1E=F DoIter=F DoCFld=F I1PDM=0.
 GePol: Maximum number of non-zero 1st derivatives   =     313
 Leave Link  701 at Wed Jun 24 00:00:43 2026, MaxMem=  1879048192 cpu:               1.8 elap:               0.3
 (Enter /CH/g16/l702.exe)
 L702 exits ... SP integral derivatives will be done elsewhere.
 Leave Link  702 at Wed Jun 24 00:00:43 2026, MaxMem=  1879048192 cpu:               0.0 elap:               0.0
 (Enter /CH/g16/l703.exe)
 Integral derivatives from FoFJK, PRISM(SPDF).
 Compute integral first derivatives, UseDBF=F ICtDFT=           0.
 Calling FoFJK, ICntrl=      2127 FMM=F ISym2X=1 I1Cent= 0 IOpClX= 0 NMat=1 NMatS=1 NMatT=0.
 FoFJK:  IHMeth= 1 ICntrl=    2127 DoSepK=F KAlg= 0 I1Cent=           0 FoldK=F
 IRaf=         0 NMat=       1 IRICut=       1 DoRegI=T DoRafI=F ISym2E= 1 IDoP0=0 IntGTp=1.
 FoFCou: FMM=F IPFlag=           0 FMFlag=      100000 FMFlg1=         800
         NFxFlg=           0 DoJE=F BraDBF=F KetDBF=F FulRan=T
         wScrn=  0.000000 ICntrl=      2127 IOpCl=  0 I1Cent=           0 NGrid=           0
         NMat0=    1 NMatS0=      1 NMatT0=    0 NMatD0=    1 NMtDS0=    0 NMtDT0=    0
 Petite list used in FoFCou.
 Leave Link  703 at Wed Jun 24 00:00:43 2026, MaxMem=  1879048192 cpu:               1.3 elap:               0.2
 (Enter /CH/g16/l716.exe)
 Dipole        =-4.44089210D-16 8.88178420D-16-7.24449925D-01
 ***** Axes restored to original set *****
 -------------------------------------------------------------------
 Center     Atomic                   Forces (Hartrees/Bohr)
 Number     Number              X              Y              Z
 -------------------------------------------------------------------
      1        8           0.000000000   -0.000000000   -0.051337424
      2        6           0.005410248    0.000000000   -0.026936606
      3        6           0.055577483   -0.000000000    0.086939493
      4        6          -0.055577483    0.000000000    0.086939493
      5        6          -0.005410248   -0.000000000   -0.026936606
      6        1           0.003135785    0.002423868   -0.004008672
      7        1           0.003135785   -0.002423868   -0.004008672
      8        1          -0.015213916   -0.018214266   -0.013158415
      9        1          -0.015213916    0.018214266   -0.013158415
     10        1           0.015213916   -0.018214266   -0.013158415
     11        1           0.015213916    0.018214266   -0.013158415
     12        1          -0.003135785    0.002423868   -0.004008672
     13        1          -0.003135785   -0.002423868   -0.004008672
 -------------------------------------------------------------------
 Cartesian Forces:  Max     0.086939493 RMS     0.027038660
 Leave Link  716 at Wed Jun 24 00:00:43 2026, MaxMem=  1879048192 cpu:               0.0 elap:               0.0
 (Enter /CH/g16/l103.exe)

 GradGradGradGradGradGradGradGradGradGradGradGradGradGradGradGradGradGrad
 Berny optimization.
 FormGI is forming the generalized inverse of G from B-inverse, IUseBI=4.
 Internal  Forces:  Max     0.058650157 RMS     0.013596787
 Search for a local minimum.
 Step number   1 out of a maximum of   81
 All quantities printed in internal units (Hartrees-Bohrs-Radians)
 RMS Force = .13597D-01 SwitMx=.10000D-02 MixMth= 1
 Mixed Optimization -- RFO/linear search
 Second derivative matrix not updated -- first step.
 ITU=  0
     Eigenvalues ---    0.01202   0.01551   0.03342   0.03449   0.04935
     Eigenvalues ---    0.05398   0.05770   0.05813   0.06484   0.06589
     Eigenvalues ---    0.08216   0.08217   0.08567   0.10577   0.11172
     Eigenvalues ---    0.11197   0.11308   0.12664   0.21657   0.22897
     Eigenvalues ---    0.28472   0.28472   0.28472   0.28472   0.33312
     Eigenvalues ---    0.33697   0.33697   0.33697   0.33697   0.34572
     Eigenvalues ---    0.37028   0.44370   0.45888
 RFO step:  Lambda=-3.72291907D-02 EMin= 1.20152442D-02
 Linear search not attempted -- first point.
 Maximum step size (   0.300) exceeded in Quadratic search.
    -- Step size scaled by   0.929
 Iteration  1 RMS(Cart)=  0.03930415 RMS(Int)=  0.00077185
 Iteration  2 RMS(Cart)=  0.00084941 RMS(Int)=  0.00040190
 Iteration  3 RMS(Cart)=  0.00000071 RMS(Int)=  0.00040190
 ITry= 1 IFail=0 DXMaxC= 1.31D-01 DCOld= 1.00D+10 DXMaxT= 3.00D-01 DXLimC= 3.00D+00 Rises=F
 ClnCor:  largest displacement from symmetrization is 1.14D-08 for atom    10.
 Variable       Old X    -DE/DX   Delta X   Delta X   Delta X     New X
                                 (Linear)    (Quad)   (Total)
    R1        2.63208   0.02114   0.00000   0.03658   0.03621   2.66830
    R2        2.63208   0.02114   0.00000   0.03658   0.03621   2.66830
    R3        2.75518   0.05865   0.00000   0.13408   0.13420   2.88938
    R4        2.07844   0.00455   0.00000   0.01129   0.01129   2.08973
    R5        2.07844   0.00455   0.00000   0.01129   0.01129   2.08973
    R6        2.79679   0.02798   0.00000   0.07141   0.07186   2.86865
    R7        2.17819  -0.02664   0.00000  -0.07688  -0.07688   2.10131
    R8        2.17819  -0.02664   0.00000  -0.07688  -0.07688   2.10131
    R9        2.75518   0.05865   0.00000   0.13408   0.13420   2.88938
   R10        2.17819  -0.02664   0.00000  -0.07688  -0.07688   2.10131
   R11        2.17819  -0.02664   0.00000  -0.07688  -0.07688   2.10131
   R12        2.07844   0.00455   0.00000   0.01129   0.01129   2.08973
   R13        2.07844   0.00455   0.00000   0.01129   0.01129   2.08973
    A1        2.02135  -0.01647   0.00000  -0.06378  -0.06448   1.95687
    A2        1.82435   0.01787   0.00000   0.06606   0.06570   1.89005
    A3        1.92435  -0.00728   0.00000  -0.02647  -0.02718   1.89717
    A4        1.92435  -0.00728   0.00000  -0.02647  -0.02718   1.89717
    A5        1.95268  -0.00139   0.00000   0.00301   0.00311   1.95579
    A6        1.95268  -0.00139   0.00000   0.00301   0.00311   1.95579
    A7        1.88555  -0.00061   0.00000  -0.01865  -0.01908   1.86647
    A8        1.87736  -0.00963   0.00000  -0.03418  -0.03345   1.84391
    A9        1.92946   0.00495   0.00000   0.02174   0.02093   1.95038
   A10        1.92946   0.00495   0.00000   0.02174   0.02093   1.95038
   A11        1.98131   0.00022   0.00000  -0.01219  -0.01220   1.96911
   A12        1.98131   0.00022   0.00000  -0.01219  -0.01220   1.96911
   A13        1.76439   0.00051   0.00000   0.02056   0.02018   1.78457
   A14        1.87736  -0.00963   0.00000  -0.03418  -0.03345   1.84391
   A15        1.98131   0.00022   0.00000  -0.01219  -0.01220   1.96911
   A16        1.98131   0.00022   0.00000  -0.01219  -0.01220   1.96911
   A17        1.92946   0.00495   0.00000   0.02174   0.02093   1.95038
   A18        1.92946   0.00495   0.00000   0.02174   0.02093   1.95038
   A19        1.76439   0.00051   0.00000   0.02056   0.02018   1.78457
   A20        1.82435   0.01787   0.00000   0.06606   0.06570   1.89005
   A21        1.92435  -0.00728   0.00000  -0.02647  -0.02718   1.89717
   A22        1.92435  -0.00728   0.00000  -0.02647  -0.02718   1.89717
   A23        1.95268  -0.00139   0.00000   0.00301   0.00311   1.95579
   A24        1.95268  -0.00139   0.00000   0.00301   0.00311   1.95579
   A25        1.88555  -0.00061   0.00000  -0.01865  -0.01908   1.86647
    D1       -0.00000   0.00000   0.00000   0.00000   0.00000   0.00000
    D2       -2.10133  -0.00496   0.00000  -0.02819  -0.02744  -2.12877
    D3        2.10133   0.00496   0.00000   0.02819   0.02744   2.12877
    D4        0.00000   0.00000   0.00000  -0.00000   0.00000   0.00000
    D5        2.10133   0.00496   0.00000   0.02819   0.02744   2.12877
    D6       -2.10133  -0.00496   0.00000  -0.02819  -0.02744  -2.12877
    D7        0.00000  -0.00000   0.00000  -0.00000   0.00000   0.00000
    D8       -2.17209   0.00302   0.00000   0.02421   0.02442  -2.14767
    D9        2.17209  -0.00302   0.00000  -0.02421  -0.02442   2.14767
   D10        2.08231   0.00139   0.00000   0.00991   0.01011   2.09242
   D11       -0.08978   0.00440   0.00000   0.03412   0.03452  -0.05526
   D12       -2.02879  -0.00163   0.00000  -0.01430  -0.01431  -2.04310
   D13       -2.08231  -0.00139   0.00000  -0.00991  -0.01011  -2.09242
   D14        2.02879   0.00163   0.00000   0.01430   0.01431   2.04310
   D15        0.08978  -0.00440   0.00000  -0.03412  -0.03452   0.05526
   D16       -0.00000   0.00000   0.00000   0.00000   0.00000   0.00000
   D17       -2.14043   0.00048   0.00000   0.00492   0.00470  -2.13572
   D18        2.14043  -0.00048   0.00000  -0.00492  -0.00470   2.13572
   D19        2.14043  -0.00048   0.00000  -0.00492  -0.00470   2.13572
   D20        0.00000  -0.00000   0.00000  -0.00000  -0.00000   0.00000
   D21       -2.00233  -0.00096   0.00000  -0.00984  -0.00941  -2.01174
   D22       -2.14043   0.00048   0.00000   0.00492   0.00470  -2.13572
   D23        2.00233   0.00096   0.00000   0.00984   0.00941   2.01174
   D24       -0.00000   0.00000   0.00000   0.00000   0.00000   0.00000
   D25       -0.00000  -0.00000   0.00000  -0.00000   0.00000   0.00000
   D26       -2.08231  -0.00139   0.00000  -0.00991  -0.01011  -2.09242
   D27        2.08231   0.00139   0.00000   0.00991   0.01011   2.09242
   D28        2.17209  -0.00302   0.00000  -0.02421  -0.02442   2.14767
   D29        0.08978  -0.00440   0.00000  -0.03412  -0.03452   0.05526
   D30       -2.02879  -0.00163   0.00000  -0.01430  -0.01431  -2.04310
   D31       -2.17209   0.00302   0.00000   0.02421   0.02442  -2.14767
   D32        2.02879   0.00163   0.00000   0.01430   0.01431   2.04310
   D33       -0.08978   0.00440   0.00000   0.03412   0.03452  -0.05526
         Item               Value     Threshold  Converged?
 Maximum Force            0.058650     0.000450     NO 
 RMS     Force            0.013597     0.000300     NO 
 Maximum Displacement     0.130876     0.001800     NO 
 RMS     Displacement     0.039348     0.001200     NO 
 Predicted change in Energy=-2.040736D-02
 Lowest energy point so far.  Saving SCF results.
 GradGradGradGradGradGradGradGradGradGradGradGradGradGradGradGradGradGrad

 Leave Link  103 at Wed Jun 24 00:00:43 2026, MaxMem=  1879048192 cpu:               0.0 elap:               0.0
 (Enter /CH/g16/l202.exe)
                          Input orientation:                          
 ---------------------------------------------------------------------
 Center     Atomic      Atomic             Coordinates (Angstroms)
 Number     Number       Type             X           Y           Z
 ---------------------------------------------------------------------
      1          8           0        0.000000    0.000000   -0.069256
      2          6           0        1.171430   -0.000000    0.719097
      3          6           0        0.759012   -0.000000    2.191422
      4          6           0       -0.759012   -0.000000    2.191422
      5          6           0       -1.171430   -0.000000    0.719097
      6          1           0        1.775208    0.888594    0.456938
      7          1           0        1.775208   -0.888594    0.456938
      8          1           0        1.190302    0.865672    2.740116
      9          1           0        1.190302   -0.865672    2.740116
     10          1           0       -1.190302    0.865672    2.740116
     11          1           0       -1.190302   -0.865672    2.740116
     12          1           0       -1.775208    0.888594    0.456938
     13          1           0       -1.775208   -0.888594    0.456938
 ---------------------------------------------------------------------
                    Distance matrix (angstroms):
                    1          2          3          4          5
     1  O    0.000000
     2  C    1.412002   0.000000
     3  C    2.384694   1.528996   0.000000
     4  C    2.384694   2.427827   1.518024   0.000000
     5  C    1.412002   2.342860   2.427827   1.528996   0.000000
     6  H    2.053739   1.105837   2.197883   3.196922   3.088851
     7  H    2.053739   1.105837   2.197883   3.196922   3.088851
     8  H    3.171558   2.198696   1.111964   2.202335   3.226714
     9  H    3.171558   2.198696   1.111964   2.202335   3.226714
    10  H    3.171558   3.226714   2.202335   1.111964   2.198696
    11  H    3.171558   3.226714   2.202335   1.111964   2.198696
    12  H    2.053739   3.088851   3.196922   2.197883   1.105837
    13  H    2.053739   3.088851   3.196922   2.197883   1.105837
                    6          7          8          9         10
     6  H    0.000000
     7  H    1.777189   0.000000
     8  H    2.357020   2.938106   0.000000
     9  H    2.938106   2.357020   1.731345   0.000000
    10  H    3.742683   4.133353   2.380604   2.943609   0.000000
    11  H    4.133353   3.742683   2.943609   2.380604   1.731345
    12  H    3.550417   3.970373   3.742683   4.133353   2.357020
    13  H    3.970373   3.550417   4.133353   3.742683   2.938106
                   11         12         13
    11  H    0.000000
    12  H    2.938106   0.000000
    13  H    2.357020   1.777189   0.000000
 Stoichiometry    C4H8O
 Framework group  C2V[C2(O),SGV(C4),X(H8)]
 Deg. of freedom    10
 Full point group                 C2V     NOp   4
 RotChk:  IX=0 Diff= 6.74D-15
 Largest Abelian subgroup         C2V     NOp   4
 Largest concise Abelian subgroup C2V     NOp   4
                         Standard orientation:                         
 ---------------------------------------------------------------------
 Center     Atomic      Atomic             Coordinates (Angstroms)
 Number     Number       Type             X           Y           Z
 ---------------------------------------------------------------------
      1          8           0        0.000000    0.000000    1.248266
      2          6           0       -0.000000    1.171430    0.459913
      3          6           0       -0.000000    0.759012   -1.012412
      4          6           0       -0.000000   -0.759012   -1.012412
      5          6           0       -0.000000   -1.171430    0.459913
      6          1           0        0.888594    1.775208    0.722072
      7          1           0       -0.888594    1.775208    0.722072
      8          1           0        0.865672    1.190302   -1.561106
      9          1           0       -0.865672    1.190302   -1.561106
     10          1           0        0.865672   -1.190302   -1.561106
     11          1           0       -0.865672   -1.190302   -1.561106
     12          1           0        0.888594   -1.775208    0.722072
     13          1           0       -0.888594   -1.775208    0.722072
 ---------------------------------------------------------------------
 Rotational constants (GHZ):           7.0801031           6.9634524           3.8417883
 Leave Link  202 at Wed Jun 24 00:00:43 2026, MaxMem=  1879048192 cpu:               0.0 elap:               0.0
 (Enter /CH/g16/l301.exe)
 Standard basis: def2SVP (5D, 7F)
 Ernie: Thresh=  0.10000D-02 Tol=  0.10000D-05 Strict=F.
 There are    40 symmetry adapted cartesian basis functions of A1  symmetry.
 There are    19 symmetry adapted cartesian basis functions of A2  symmetry.
 There are    21 symmetry adapted cartesian basis functions of B1  symmetry.
 There are    35 symmetry adapted cartesian basis functions of B2  symmetry.
 There are    37 symmetry adapted basis functions of A1  symmetry.
 There are    19 symmetry adapted basis functions of A2  symmetry.
 There are    21 symmetry adapted basis functions of B1  symmetry.
 There are    33 symmetry adapted basis functions of B2  symmetry.
   110 basis functions,   181 primitive gaussians,   115 cartesian basis functions
    20 alpha electrons       20 beta electrons
       nuclear repulsion energy       189.6779166787 Hartrees.
 IExCor=  402 DFT=T Ex+Corr=B3LYP ExCW=0 ScaHFX=  0.200000
 ScaDFX=  0.800000  0.720000  1.000000  0.810000 ScalE2=  1.000000  1.000000
 IRadAn=      5 IRanWt=     -1 IRanGd=            0 ICorTp=0 IEmpDi=141
 NAtoms=   13 NActive=   13 NUniq=    5 SFac= 4.00D+00 NAtFMM=   60 NAOKFM=F Big=F
 Integral buffers will be    131072 words long.
 Raffenetti 2 integral format.
 Two-electron integral symmetry is turned on.
 R6Disp:  Grimme-D3(BJ) Dispersion energy=       -0.0151557316 Hartrees.
 Nuclear repulsion after empirical dispersion term =      189.6627609471 Hartrees.
 ------------------------------------------------------------------------------
 Polarizable Continuum Model (PCM)
 =================================
 Model                : PCM.
 Atomic radii         : SMD-Coulomb.
 Polarization charges : Total charges.
 Charge compensation  : None.
 Solution method      : On-the-fly selection.
 Cavity type          : VdW (van der Waals Surface) (Alpha=1.000).
 Cavity algorithm     : GePol (No added spheres)
                        Default sphere list used, NSphG=   13.
                        Lebedev-Laikov grids with approx.  5.0 points / Ang**2.
                        Smoothing algorithm: York/Karplus (Gamma=1.0000).
                        Polarization charges: spherical gaussians, with
                                              point-specific exponents (IZeta= 3).
                        Self-potential: point-specific (ISelfS= 7).
                        Self-field    : sphere-specific E.n sum rule (ISelfD= 2).
 1st derivatives      : Analytical E(r).r(x)/FMM algorithm (CHGder, D1EAlg=3).
                        Cavity 1st derivative terms included.
 Solvent              : TetraHydroFuran, Eps=   7.425700 Eps(inf)=   1.974025
 ------------------------------------------------------------------------------
 Spheres list:
 ISph  on   Nord     Re0    Alpha      Xe            Ye            Ze
    1   O      1    2.2940  1.000      0.000000      0.000000      1.248266
    2   C      2    1.8500  1.000     -0.000000      1.171430      0.459913
    3   C      3    1.8500  1.000     -0.000000      0.759012     -1.012412
    4   C      4    1.8500  1.000     -0.000000     -0.759012     -1.012412
    5   C      5    1.8500  1.000     -0.000000     -1.171430      0.459913
    6   H      6    1.2000  1.000      0.888594      1.775208      0.722072
    7   H      7    1.2000  1.000     -0.888594      1.775208      0.722072
    8   H      8    1.2000  1.000      0.865672      1.190302     -1.561106
    9   H      9    1.2000  1.000     -0.865672      1.190302     -1.561106
   10   H     10    1.2000  1.000      0.865672     -1.190302     -1.561106
   11   H     11    1.2000  1.000     -0.865672     -1.190302     -1.561106
   12   H     12    1.2000  1.000      0.888594     -1.775208      0.722072
   13   H     13    1.2000  1.000     -0.888594     -1.775208      0.722072
 ------------------------------------------------------------------------------
 GePol: Number of generator spheres                  =      13
 GePol: Total number of spheres                      =      13
 GePol: Number of exposed spheres                    =      13 (100.00%)
 GePol: Number of points                             =    1005
 GePol: Average weight of points                     =       0.12
 GePol: Minimum weight of points                     =   0.71D-09
 GePol: Maximum weight of points                     =    0.17992
 GePol: Number of points with low weight             =      52
 GePol: Fraction of low-weight points (<1% of avg)   =       5.17%
 GePol: Cavity surface area                          =    116.702 Ang**2
 GePol: Cavity volume                                =     99.221 Ang**3
 ------------------------------------------------------------------------------
 Atomic radii for non-electrostatic terms: SMD-CDS.
 ------------------------------------------------------------------------------
 PCM non-electrostatic energy =        -0.0025337666 Hartrees.
 Nuclear repulsion after PCM non-electrostatic terms =      189.6602271805 Hartrees.
 Leave Link  301 at Wed Jun 24 00:00:43 2026, MaxMem=  1879048192 cpu:               0.1 elap:               0.0
 (Enter /CH/g16/l302.exe)
 NPDir=0 NMtPBC=     1 NCelOv=     1 NCel=       1 NClECP=     1 NCelD=      1
         NCelK=      1 NCelE2=     1 NClLst=     1 CellRange=     0.0.
 One-electron integrals computed using PRISM.
 One-electron integral symmetry used in STVInt
   4 Symmetry operations used in ECPInt.
 ECPInt:  NShTT=    1485 NPrTT=    5139 LenC2=    1486 LenP2D=    4505.
 LDataN:  DoStor=T MaxTD1= 4 Len=   56
 NBasis=   110 RedAO= T EigKep=  1.07D-03  NBF=    37    19    21    33
 NBsUse=   110 1.00D-06 EigRej= -1.00D+00 NBFU=    37    19    21    33
 Precomputing XC quadrature grid using
 IXCGrd= 4 IRadAn=           5 IRanWt=          -1 IRanGd=           0 AccXCQ= 0.00D+00.
 Generated NRdTot=       0 NPtTot=           0 NUsed=           0 NTot=          32
 NSgBfM=   115   115   115   115   115 MxSgAt=    13 MxSgA2=    13.
 Leave Link  302 at Wed Jun 24 00:00:43 2026, MaxMem=  1879048192 cpu:               0.4 elap:               0.1
 (Enter /CH/g16/l303.exe)
 DipDrv:  MaxL=1.
 Leave Link  303 at Wed Jun 24 00:00:43 2026, MaxMem=  1879048192 cpu:               0.1 elap:               0.0
 (Enter /CH/g16/l401.exe)
 Initial guess from the checkpoint file:  "THF.chk"
 B after Tr=    -0.000000    0.000000    0.000000
         Rot=    1.000000    0.000000   -0.000000    0.000000 Ang=   0.00 deg.
 Guess basis will be translated and rotated to current coordinates.
 JPrj=2 DoOrth=T DoCkMO=T.
 Initial guess orbital symmetries:
       Occupied  (A1) (A1) (B2) (A1) (B2) (A1) (A1) (B2) (A1) (B2)
                 (B1) (A1) (B2) (A2) (B1) (A1) (B2) (A1) (A2) (B1)
       Virtual   (A1) (B1) (B2) (A1) (A2) (B2) (A1) (B1) (B2) (A2)
                 (A1) (B2) (B2) (B1) (A1) (B2) (A1) (A2) (A1) (B2)
                 (B1) (A1) (B2) (A1) (B2) (B1) (A1) (A2) (A1) (B2)
                 (B1) (B2) (A2) (A2) (B2) (A1) (B1) (A1) (B2) (A1)
                 (A2) (B1) (A2) (B2) (B1) (A1) (B2) (B1) (A1) (B1)
                 (A2) (A2) (A1) (B1) (A1) (B2) (B2) (B1) (A1) (A2)
                 (B2) (B1) (A2) (B2) (A1) (A1) (A2) (A1) (B2) (B2)
                 (B2) (A1) (B1) (A1) (A2) (A1) (B2) (B1) (B2) (B2)
                 (B1) (A1) (A2) (B2) (A1) (B1) (A2) (A2) (A1) (B2)
 The electronic state of the initial guess is 1-A1.
 Generating alternative initial guess.
 ExpMin= 1.22D-01 ExpMax= 2.27D+03 ExpMxC= 3.41D+02 IAcc=3 IRadAn=         5 AccDes= 0.00D+00
 Harris functional with IExCor=  402 and IRadAn=       5 diagonalized for initial guess.
 HarFok:  IExCor=  402 AccDes= 0.00D+00 IRadAn=         5 IDoV= 1 UseB2=F ITyADJ=14
 ICtDFT=  3500011 ScaDFX=  1.000000  1.000000  1.000000  1.000000
 FoFCou: FMM=F IPFlag=           0 FMFlag=      100000 FMFlg1=           0
         NFxFlg=           0 DoJE=T BraDBF=F KetDBF=T FulRan=T
         wScrn=  0.000000 ICntrl=       500 IOpCl=  0 I1Cent=   200000004 NGrid=           0
         NMat0=    1 NMatS0=      1 NMatT0=    0 NMatD0=    1 NMtDS0=    0 NMtDT0=    0
 Petite list used in FoFCou.
 Harris En= -232.297816717773    
 Leave Link  401 at Wed Jun 24 00:00:43 2026, MaxMem=  1879048192 cpu:               0.7 elap:               0.1
 (Enter /CH/g16/l502.exe)
 Keep R1 ints in memory in symmetry-blocked form, NReq=26169880.
 FoFCou: FMM=F IPFlag=           0 FMFlag=           0 FMFlg1=           0
         NFxFlg=           0 DoJE=F BraDBF=F KetDBF=F FulRan=T
         wScrn=  0.000000 ICntrl=       600 IOpCl=  0 I1Cent=           0 NGrid=           0
         NMat0=    1 NMatS0=   6105 NMatT0=    0 NMatD0=    1 NMtDS0=    0 NMtDT0=    0
 Petite list used in FoFCou.
 Closed shell SCF:
 Using DIIS extrapolation, IDIIS=  1040.
 NGot=  1879048192 LenX=  1874309166 LenY=  1874295500
 Requested convergence on RMS density matrix=1.00D-08 within 128 cycles.
 Requested convergence on MAX density matrix=1.00D-06.
 Requested convergence on             energy=1.00D-06.
 No special actions if energy rises.

 Cycle   1  Pass 1  IDiag  1:
 Inv3:  Mode=1 IEnd=     3030075.
 Iteration    1 A*A^-1 deviation from unit magnitude is 4.44D-15 for    729.
 Iteration    1 A*A^-1 deviation from orthogonality  is 2.19D-15 for    472    347.
 Iteration    1 A^-1*A deviation from unit magnitude is 5.44D-15 for    729.
 Iteration    1 A^-1*A deviation from orthogonality  is 1.67D-15 for    730    706.
 E= -232.286933234172    
 DIIS: error= 5.00D-03 at cycle   1 NSaved=   1.
 NSaved= 1 IEnMin= 1 EnMin= -232.286933234172     IErMin= 1 ErrMin= 5.00D-03
 ErrMax= 5.00D-03  0.00D+00 EMaxC= 1.00D-01 BMatC= 3.23D-03 BMatP= 3.23D-03
 IDIUse=3 WtCom= 9.50D-01 WtEn= 5.00D-02
 Coeff-Com:  0.100D+01
 Coeff-En:   0.100D+01
 Coeff:      0.100D+01
 Gap=     0.293 Goal=   None    Shift=    0.000
 GapD=    0.293 DampG=1.000 DampE=1.000 DampFc=1.0000 IDamp=-1.
 RMSDP=1.20D-03 MaxDP=1.70D-02              OVMax= 1.85D-02

 Cycle   2  Pass 1  IDiag  1:
 E= -232.291438552497     Delta-E=       -0.004505318325 Rises=F Damp=F
 DIIS: error= 1.27D-03 at cycle   2 NSaved=   2.
 NSaved= 2 IEnMin= 2 EnMin= -232.291438552497     IErMin= 2 ErrMin= 1.27D-03
 ErrMax= 1.27D-03  0.00D+00 EMaxC= 1.00D-01 BMatC= 1.81D-04 BMatP= 3.23D-03
 IDIUse=3 WtCom= 9.87D-01 WtEn= 1.27D-02
 Coeff-Com:  0.769D-01 0.923D+00
 Coeff-En:   0.000D+00 0.100D+01
 Coeff:      0.759D-01 0.924D+00
 Gap=     0.292 Goal=   None    Shift=    0.000
 RMSDP=2.08D-04 MaxDP=4.74D-03 DE=-4.51D-03 OVMax= 5.16D-03

 Cycle   3  Pass 1  IDiag  1:
 E= -232.291490219410     Delta-E=       -0.000051666913 Rises=F Damp=F
 DIIS: error= 1.14D-03 at cycle   3 NSaved=   3.
 NSaved= 3 IEnMin= 3 EnMin= -232.291490219410     IErMin= 3 ErrMin= 1.14D-03
 ErrMax= 1.14D-03  0.00D+00 EMaxC= 1.00D-01 BMatC= 1.28D-04 BMatP= 1.81D-04
 IDIUse=3 WtCom= 9.89D-01 WtEn= 1.14D-02
 Coeff-Com: -0.125D-01 0.455D+00 0.558D+00
 Coeff-En:   0.000D+00 0.407D+00 0.593D+00
 Coeff:     -0.124D-01 0.454D+00 0.558D+00
 Gap=     0.291 Goal=   None    Shift=    0.000
 RMSDP=1.06D-04 MaxDP=2.59D-03 DE=-5.17D-05 OVMax= 2.75D-03

 Cycle   4  Pass 1  IDiag  1:
 E= -232.291614837380     Delta-E=       -0.000124617970 Rises=F Damp=F
 DIIS: error= 1.68D-04 at cycle   4 NSaved=   4.
 NSaved= 4 IEnMin= 4 EnMin= -232.291614837380     IErMin= 4 ErrMin= 1.68D-04
 ErrMax= 1.68D-04  0.00D+00 EMaxC= 1.00D-01 BMatC= 3.13D-06 BMatP= 1.28D-04
 IDIUse=3 WtCom= 9.98D-01 WtEn= 1.68D-03
 Coeff-Com: -0.709D-02 0.107D+00 0.204D+00 0.696D+00
 Coeff-En:   0.000D+00 0.000D+00 0.000D+00 0.100D+01
 Coeff:     -0.708D-02 0.107D+00 0.204D+00 0.696D+00
 Gap=     0.290 Goal=   None    Shift=    0.000
 RMSDP=1.74D-05 MaxDP=3.58D-04 DE=-1.25D-04 OVMax= 4.12D-04

 Cycle   5  Pass 1  IDiag  1:
 E= -232.291617521696     Delta-E=       -0.000002684316 Rises=F Damp=F
 DIIS: error= 7.51D-05 at cycle   5 NSaved=   5.
 NSaved= 5 IEnMin= 5 EnMin= -232.291617521696     IErMin= 5 ErrMin= 7.51D-05
 ErrMax= 7.51D-05  0.00D+00 EMaxC= 1.00D-01 BMatC= 4.77D-07 BMatP= 3.13D-06
 IDIUse=1 WtCom= 1.00D+00 WtEn= 0.00D+00
 Coeff-Com: -0.310D-02 0.363D-01 0.858D-01 0.382D+00 0.499D+00
 Coeff:     -0.310D-02 0.363D-01 0.858D-01 0.382D+00 0.499D+00
 Gap=     0.291 Goal=   None    Shift=    0.000
 RMSDP=6.17D-06 MaxDP=1.72D-04 DE=-2.68D-06 OVMax= 1.80D-04

 Cycle   6  Pass 1  IDiag  1:
 E= -232.291617868991     Delta-E=       -0.000000347295 Rises=F Damp=F
 DIIS: error= 1.41D-05 at cycle   6 NSaved=   6.
 NSaved= 6 IEnMin= 6 EnMin= -232.291617868991     IErMin= 6 ErrMin= 1.41D-05
 ErrMax= 1.41D-05  0.00D+00 EMaxC= 1.00D-01 BMatC= 1.92D-08 BMatP= 4.77D-07
 IDIUse=1 WtCom= 1.00D+00 WtEn= 0.00D+00
 Coeff-Com: -0.197D-03-0.246D-02 0.371D-02 0.510D-01 0.192D+00 0.756D+00
 Coeff:     -0.197D-03-0.246D-02 0.371D-02 0.510D-01 0.192D+00 0.756D+00
 Gap=     0.290 Goal=   None    Shift=    0.000
 RMSDP=1.22D-06 MaxDP=3.41D-05 DE=-3.47D-07 OVMax= 2.88D-05

 Cycle   7  Pass 1  IDiag  1:
 E= -232.291617884047     Delta-E=       -0.000000015056 Rises=F Damp=F
 DIIS: error= 1.64D-06 at cycle   7 NSaved=   7.
 NSaved= 7 IEnMin= 7 EnMin= -232.291617884047     IErMin= 7 ErrMin= 1.64D-06
 ErrMax= 1.64D-06  0.00D+00 EMaxC= 1.00D-01 BMatC= 3.72D-10 BMatP= 1.92D-08
 IDIUse=1 WtCom= 1.00D+00 WtEn= 0.00D+00
 Coeff-Com:  0.824D-05-0.161D-02-0.455D-03 0.100D-01 0.541D-01 0.247D+00
 Coeff-Com:  0.691D+00
 Coeff:      0.824D-05-0.161D-02-0.455D-03 0.100D-01 0.541D-01 0.247D+00
 Coeff:      0.691D+00
 Gap=     0.290 Goal=   None    Shift=    0.000
 RMSDP=2.37D-07 MaxDP=5.86D-06 DE=-1.51D-08 OVMax= 6.21D-06

 Cycle   8  Pass 1  IDiag  1:
 E= -232.291617884327     Delta-E=       -0.000000000280 Rises=F Damp=F
 DIIS: error= 7.47D-07 at cycle   8 NSaved=   8.
 NSaved= 8 IEnMin= 8 EnMin= -232.291617884327     IErMin= 8 ErrMin= 7.47D-07
 ErrMax= 7.47D-07  0.00D+00 EMaxC= 1.00D-01 BMatC= 8.45D-11 BMatP= 3.72D-10
 IDIUse=1 WtCom= 1.00D+00 WtEn= 0.00D+00
 Coeff-Com:  0.159D-04-0.466D-03-0.548D-03-0.276D-03 0.600D-02 0.411D-01
 Coeff-Com:  0.344D+00 0.610D+00
 Coeff:      0.159D-04-0.466D-03-0.548D-03-0.276D-03 0.600D-02 0.411D-01
 Coeff:      0.344D+00 0.610D+00
 Gap=     0.290 Goal=   None    Shift=    0.000
 RMSDP=8.01D-08 MaxDP=2.01D-06 DE=-2.80D-10 OVMax= 2.32D-06

 Cycle   9  Pass 1  IDiag  1:
 E= -232.291617884415     Delta-E=       -0.000000000088 Rises=F Damp=F
 DIIS: error= 7.20D-08 at cycle   9 NSaved=   9.
 NSaved= 9 IEnMin= 9 EnMin= -232.291617884415     IErMin= 9 ErrMin= 7.20D-08
 ErrMax= 7.20D-08  0.00D+00 EMaxC= 1.00D-01 BMatC= 8.00D-13 BMatP= 8.45D-11
 IDIUse=1 WtCom= 1.00D+00 WtEn= 0.00D+00
 Coeff-Com:  0.296D-05-0.138D-04-0.117D-03-0.597D-03-0.176D-02-0.436D-02
 Coeff-Com:  0.371D-01 0.127D+00 0.843D+00
 Coeff:      0.296D-05-0.138D-04-0.117D-03-0.597D-03-0.176D-02-0.436D-02
 Coeff:      0.371D-01 0.127D+00 0.843D+00
 Gap=     0.290 Goal=   None    Shift=    0.000
 RMSDP=8.89D-09 MaxDP=1.37D-07 DE=-8.76D-11 OVMax= 1.91D-07

 Error on total polarization charges =  0.02740
 SCF Done:  E(RB3LYP) =  -232.291617884     A.U. after    9 cycles
            NFock=  9  Conv=0.89D-08     -V/T= 2.0106
 KE= 2.298612088620D+02 PE=-9.194890927044D+02 EE= 2.676760387775D+02
 SMD-CDS (non-electrostatic) energy       (kcal/mol) =      -1.59
 (included in total energy above)
 Leave Link  502 at Wed Jun 24 00:00:45 2026, MaxMem=  1879048192 cpu:               9.5 elap:               1.4
 (Enter /CH/g16/l701.exe)
 ... and contract with generalized density number  0.
 Compute integral first derivatives.
 R6Disp: Adding Grimme-D3(BJ) dispersion energy 1st derivatives to the gradient.
   4 Symmetry operations used in ECPInt.
 ECPInt:  NShTT=    1485 NPrTT=    5139 LenC2=    1486 LenP2D=    4505.
 LDataN:  DoStor=T MaxTD1= 5 Len=  102
 D1PCM: PCM CHGder 1st derivatives, ID1Alg=3 FixD1E=F DoIter=F DoCFld=F I1PDM=0.
 GePol: Maximum number of non-zero 1st derivatives   =     309
 Leave Link  701 at Wed Jun 24 00:00:45 2026, MaxMem=  1879048192 cpu:               1.7 elap:               0.3
 (Enter /CH/g16/l702.exe)
 L702 exits ... SP integral derivatives will be done elsewhere.
 Leave Link  702 at Wed Jun 24 00:00:45 2026, MaxMem=  1879048192 cpu:               0.0 elap:               0.0
 (Enter /CH/g16/l703.exe)
 Integral derivatives from FoFJK, PRISM(SPDF).
 Compute integral first derivatives, UseDBF=F ICtDFT=           0.
 Calling FoFJK, ICntrl=      2127 FMM=F ISym2X=1 I1Cent= 0 IOpClX= 0 NMat=1 NMatS=1 NMatT=0.
 FoFJK:  IHMeth= 1 ICntrl=    2127 DoSepK=F KAlg= 0 I1Cent=           0 FoldK=F
 IRaf=         0 NMat=       1 IRICut=       1 DoRegI=T DoRafI=F ISym2E= 1 IDoP0=0 IntGTp=1.
 FoFCou: FMM=F IPFlag=           0 FMFlag=      100000 FMFlg1=         800
         NFxFlg=           0 DoJE=F BraDBF=F KetDBF=F FulRan=T
         wScrn=  0.000000 ICntrl=      2127 IOpCl=  0 I1Cent=           0 NGrid=           0
         NMat0=    1 NMatS0=      1 NMatT0=    0 NMatD0=    1 NMtDS0=    0 NMtDT0=    0
 Petite list used in FoFCou.
 Leave Link  703 at Wed Jun 24 00:00:45 2026, MaxMem=  1879048192 cpu:               1.3 elap:               0.2
 (Enter /CH/g16/l716.exe)
 Dipole        =-4.44089210D-16-1.77635684D-15-8.15429255D-01
 ***** Axes restored to original set *****
 -------------------------------------------------------------------
 Center     Atomic                   Forces (Hartrees/Bohr)
 Number     Number              X              Y              Z
 -------------------------------------------------------------------
      1        8           0.000000000   -0.000000000   -0.003358227
      2        6           0.005835937    0.000000000   -0.005803746
      3        6           0.020266828    0.000000000    0.018333220
      4        6          -0.020266828    0.000000000    0.018333220
      5        6          -0.005835937   -0.000000000   -0.005803746
      6        1           0.001049352    0.000186677    0.001090569
      7        1           0.001049352   -0.000186677    0.001090569
      8        1          -0.005421585   -0.001195289   -0.006515749
      9        1          -0.005421585    0.001195289   -0.006515749
     10        1           0.005421585   -0.001195289   -0.006515749
     11        1           0.005421585    0.001195289   -0.006515749
     12        1          -0.001049352    0.000186677    0.001090569
     13        1          -0.001049352   -0.000186677    0.001090569
 -------------------------------------------------------------------
 Cartesian Forces:  Max     0.020266828 RMS     0.007058136
 Leave Link  716 at Wed Jun 24 00:00:45 2026, MaxMem=  1879048192 cpu:               0.0 elap:               0.0
 (Enter /CH/g16/l103.exe)

 GradGradGradGradGradGradGradGradGradGradGradGradGradGradGradGradGradGrad
 Berny optimization.
 Using GEDIIS/GDIIS optimizer.
 FormGI is forming the generalized inverse of G from B-inverse, IUseBI=4.
 Internal  Forces:  Max     0.010357575 RMS     0.002710736
 Search for a local minimum.
 Step number   2 out of a maximum of   81
 All quantities printed in internal units (Hartrees-Bohrs-Radians)
 RMS Force = .27107D-02 SwitMx=.10000D-02 MixMth= 1
 Mixed Optimization -- RFO/linear search
 Update second derivatives using D2CorX and points    1    2
 DE= -1.92D-02 DEPred=-2.04D-02 R= 9.39D-01
 TightC=F SS=  1.41D+00  RLast= 3.19D-01 DXNew= 5.0454D-01 9.5592D-01
 Trust test= 9.39D-01 RLast= 3.19D-01 DXMaxT set to 5.05D-01
 ITU=  1  0
 Use linear search instead of GDIIS.
     Eigenvalues ---    0.01211   0.01543   0.03272   0.03602   0.04953
     Eigenvalues ---    0.05505   0.05529   0.05707   0.06421   0.06508
     Eigenvalues ---    0.07863   0.07934   0.08305   0.10482   0.11607
     Eigenvalues ---    0.11670   0.11841   0.12819   0.21663   0.24294
     Eigenvalues ---    0.27599   0.28472   0.28472   0.28472   0.32676
     Eigenvalues ---    0.33697   0.33697   0.33697   0.33717   0.34518
     Eigenvalues ---    0.39859   0.43701   0.45804
 RFO step:  Lambda=-2.58176357D-03 EMin= 1.21086849D-02
 Quartic linear search produced a step of  0.17013.
 Iteration  1 RMS(Cart)=  0.01417226 RMS(Int)=  0.00031508
 Iteration  2 RMS(Cart)=  0.00026171 RMS(Int)=  0.00013743
 Iteration  3 RMS(Cart)=  0.00000004 RMS(Int)=  0.00013743
 ITry= 1 IFail=0 DXMaxC= 3.19D-02 DCOld= 1.00D+10 DXMaxT= 5.05D-01 DXLimC= 3.00D+00 Rises=F
 ClnCor:  largest displacement from symmetrization is 5.92D-09 for atom    10.
 Variable       Old X    -DE/DX   Delta X   Delta X   Delta X     New X
                                 (Linear)    (Quad)   (Total)
    R1        2.66830   0.00675   0.00616   0.01077   0.01679   2.68509
    R2        2.66830   0.00675   0.00616   0.01077   0.01679   2.68509
    R3        2.88938   0.00536   0.02283   0.00097   0.02385   2.91323
    R4        2.08973   0.00046   0.00192   0.00021   0.00213   2.09186
    R5        2.08973   0.00046   0.00192   0.00021   0.00213   2.09186
    R6        2.86865   0.01036   0.01222   0.02850   0.04089   2.90954
    R7        2.10131  -0.00625  -0.01308  -0.01593  -0.02901   2.07230
    R8        2.10131  -0.00625  -0.01308  -0.01593  -0.02901   2.07230
    R9        2.88938   0.00536   0.02283   0.00097   0.02385   2.91323
   R10        2.10131  -0.00625  -0.01308  -0.01593  -0.02901   2.07230
   R11        2.10131  -0.00625  -0.01308  -0.01593  -0.02901   2.07230
   R12        2.08973   0.00046   0.00192   0.00021   0.00213   2.09186
   R13        2.08973   0.00046   0.00192   0.00021   0.00213   2.09186
    A1        1.95687   0.00280  -0.01097   0.01973   0.00858   1.96544
    A2        1.89005  -0.00178   0.01118  -0.01315  -0.00196   1.88809
    A3        1.89717   0.00155  -0.00462   0.01667   0.01190   1.90907
    A4        1.89717   0.00155  -0.00462   0.01667   0.01190   1.90907
    A5        1.95579  -0.00057   0.00053  -0.00948  -0.00898   1.94681
    A6        1.95579  -0.00057   0.00053  -0.00948  -0.00898   1.94681
    A7        1.86647   0.00001  -0.00325   0.00070  -0.00277   1.86370
    A8        1.84391   0.00038  -0.00569   0.00328  -0.00233   1.84158
    A9        1.95038  -0.00076   0.00356  -0.01598  -0.01279   1.93760
   A10        1.95038  -0.00076   0.00356  -0.01598  -0.01279   1.93760
   A11        1.96911  -0.00110  -0.00208  -0.01453  -0.01679   1.95232
   A12        1.96911  -0.00110  -0.00208  -0.01453  -0.01679   1.95232
   A13        1.78457   0.00326   0.00343   0.05650   0.06007   1.84464
   A14        1.84391   0.00038  -0.00569   0.00328  -0.00233   1.84158
   A15        1.96911  -0.00110  -0.00208  -0.01453  -0.01679   1.95232
   A16        1.96911  -0.00110  -0.00208  -0.01453  -0.01679   1.95232
[...]
 ! R1    R(1,2)                  1.4195         -DE/DX =   -0.0001              !
 ! R2    R(1,5)                  1.4195         -DE/DX =   -0.0001              !
 ! R3    R(2,3)                  1.5422         -DE/DX =   -0.0003              !
 ! R4    R(2,6)                  1.106          -DE/DX =    0.0                 !
 ! R5    R(2,7)                  1.106          -DE/DX =    0.0                 !
 ! R6    R(3,4)                  1.544          -DE/DX =    0.0001              !
 ! R7    R(3,8)                  1.0998         -DE/DX =    0.0                 !
 ! R8    R(3,9)                  1.0998         -DE/DX =    0.0                 !
 ! R9    R(4,5)                  1.5422         -DE/DX =   -0.0003              !
 ! R10   R(4,10)                 1.0998         -DE/DX =    0.0                 !
 ! R11   R(4,11)                 1.0998         -DE/DX =    0.0                 !
 ! R12   R(5,12)                 1.106          -DE/DX =    0.0                 !
 ! R13   R(5,13)                 1.106          -DE/DX =    0.0                 !
 ! A1    A(2,1,5)              112.4886         -DE/DX =    0.0001              !
 ! A2    A(1,2,3)              108.4073         -DE/DX =    0.0                 !
 ! A3    A(1,2,6)              109.1766         -DE/DX =    0.0                 !
 ! A4    A(1,2,7)              109.1766         -DE/DX =    0.0                 !
 ! A5    A(3,2,6)              111.4956         -DE/DX =    0.0                 !
 ! A6    A(3,2,7)              111.4956         -DE/DX =    0.0                 !
 ! A7    A(6,2,7)              107.0465         -DE/DX =    0.0                 !
 ! A8    A(2,3,4)              105.3484         -DE/DX =    0.0                 !
 ! A9    A(2,3,8)              110.8778         -DE/DX =    0.0                 !
 ! A10   A(2,3,9)              110.8778         -DE/DX =    0.0                 !
 ! A11   A(4,3,8)              111.3527         -DE/DX =    0.0                 !
 ! A12   A(4,3,9)              111.3527         -DE/DX =    0.0                 !
 ! A13   A(8,3,9)              107.0973         -DE/DX =    0.0                 !
 ! A14   A(3,4,5)              105.3484         -DE/DX =    0.0                 !
 ! A15   A(3,4,10)             111.3527         -DE/DX =    0.0                 !
 ! A16   A(3,4,11)             111.3527         -DE/DX =    0.0                 !
 ! A17   A(5,4,10)             110.8778         -DE/DX =    0.0                 !
 ! A18   A(5,4,11)             110.8778         -DE/DX =    0.0                 !
 ! A19   A(10,4,11)            107.0973         -DE/DX =    0.0                 !
 ! A20   A(1,5,4)              108.4073         -DE/DX =    0.0                 !
 ! A21   A(1,5,12)             109.1766         -DE/DX =    0.0                 !
 ! A22   A(1,5,13)             109.1766         -DE/DX =    0.0                 !
 ! A23   A(4,5,12)             111.4956         -DE/DX =    0.0                 !
 ! A24   A(4,5,13)             111.4956         -DE/DX =    0.0                 !
 ! A25   A(12,5,13)            107.0465         -DE/DX =    0.0                 !
 ! D1    D(5,1,2,3)              0.0            -DE/DX =    0.0                 !
 ! D2    D(5,1,2,6)           -121.6424         -DE/DX =    0.0                 !
 ! D3    D(5,1,2,7)            121.6424         -DE/DX =    0.0                 !
 ! D4    D(2,1,5,4)              0.0            -DE/DX =    0.0                 !
 ! D5    D(2,1,5,12)           121.6424         -DE/DX =    0.0                 !
 ! D6    D(2,1,5,13)          -121.6424         -DE/DX =    0.0                 !
 ! D7    D(1,2,3,4)              0.0            -DE/DX =    0.0                 !
 ! D8    D(1,2,3,8)           -120.5838         -DE/DX =    0.0                 !
 ! D9    D(1,2,3,9)            120.5838         -DE/DX =    0.0                 !
 ! D10   D(6,2,3,4)            120.2077         -DE/DX =    0.0                 !
 ! D11   D(6,2,3,8)             -0.3762         -DE/DX =    0.0                 !
 ! D12   D(6,2,3,9)           -119.2085         -DE/DX =    0.0                 !
 ! D13   D(7,2,3,4)           -120.2077         -DE/DX =    0.0                 !
 ! D14   D(7,2,3,8)            119.2085         -DE/DX =    0.0                 !
 ! D15   D(7,2,3,9)              0.3762         -DE/DX =    0.0                 !
 ! D16   D(2,3,4,5)              0.0            -DE/DX =    0.0                 !
 ! D17   D(2,3,4,10)          -120.2716         -DE/DX =    0.0                 !
 ! D18   D(2,3,4,11)           120.2716         -DE/DX =    0.0                 !
 ! D19   D(8,3,4,5)            120.2716         -DE/DX =    0.0                 !
 ! D20   D(8,3,4,10)             0.0            -DE/DX =    0.0                 !
 ! D21   D(8,3,4,11)          -119.4568         -DE/DX =    0.0                 !
 ! D22   D(9,3,4,5)           -120.2716         -DE/DX =    0.0                 !
 ! D23   D(9,3,4,10)           119.4568         -DE/DX =    0.0                 !
 ! D24   D(9,3,4,11)             0.0            -DE/DX =    0.0                 !
 ! D25   D(3,4,5,1)              0.0            -DE/DX =    0.0                 !
 ! D26   D(3,4,5,12)          -120.2077         -DE/DX =    0.0                 !
 ! D27   D(3,4,5,13)           120.2077         -DE/DX =    0.0                 !
 ! D28   D(10,4,5,1)           120.5838         -DE/DX =    0.0                 !
 ! D29   D(10,4,5,12)            0.3762         -DE/DX =    0.0                 !
 ! D30   D(10,4,5,13)         -119.2085         -DE/DX =    0.0                 !
 ! D31   D(11,4,5,1)          -120.5838         -DE/DX =    0.0                 !
 ! D32   D(11,4,5,12)          119.2085         -DE/DX =    0.0                 !
 ! D33   D(11,4,5,13)           -0.3762         -DE/DX =    0.0                 !
 --------------------------------------------------------------------------------
 Lowest energy point so far.  Saving SCF results.
 Largest change from initial coordinates is atom    3       0.037 Angstoms.
 GradGradGradGradGradGradGradGradGradGradGradGradGradGradGradGradGradGrad

 Leave Link  103 at Wed Jun 24 00:00:52 2026, MaxMem=  1879048192 cpu:               0.0 elap:               0.0
 (Enter /CH/g16/l202.exe)
                          Input orientation:                          
 ---------------------------------------------------------------------
 Center     Atomic      Atomic             Coordinates (Angstroms)
 Number     Number       Type             X           Y           Z
 ---------------------------------------------------------------------
      1          8           0        0.000000    0.000000   -0.069106
      2          6           0        1.180181    0.000000    0.719637
      3          6           0        0.771978    0.000000    2.206841
      4          6           0       -0.771978   -0.000000    2.206841
      5          6           0       -1.180181   -0.000000    0.719637
      6          1           0        1.786776    0.889373    0.465855
      7          1           0        1.786776   -0.889373    0.465855
      8          1           0        1.172417    0.884620    2.723183
      9          1           0        1.172417   -0.884620    2.723183
     10          1           0       -1.172417    0.884620    2.723183
     11          1           0       -1.172417   -0.884620    2.723183
     12          1           0       -1.786776    0.889373    0.465855
     13          1           0       -1.786776   -0.889373    0.465855
 ---------------------------------------------------------------------
                    Distance matrix (angstroms):
                    1          2          3          4          5
     1  O    0.000000
     2  C    1.419487   0.000000
     3  C    2.403306   1.542208   0.000000
     4  C    2.403306   2.454119   1.543956   0.000000
     5  C    1.419487   2.360363   2.454119   1.542208   0.000000
     6  H    2.066333   1.106050   2.202687   3.220130   3.107768
     7  H    2.066333   1.106050   2.202687   3.220130   3.107768
     8  H    3.154994   2.190162   1.099779   2.197688   3.214260
     9  H    3.154994   2.190162   1.099779   2.197688   3.214260
    10  H    3.154994   3.214260   2.197688   1.099779   2.190162
    11  H    3.154994   3.214260   2.197688   1.099779   2.190162
    12  H    2.066333   3.107768   3.220130   2.202687   1.106050
    13  H    2.066333   3.107768   3.220130   2.202687   1.106050
                    6          7          8          9         10
     6  H    0.000000
     7  H    1.778746   0.000000
     8  H    2.339443   2.935987   0.000000
     9  H    2.935987   2.339443   1.769240   0.000000
    10  H    3.721878   4.123033   2.344833   2.937423   0.000000
    11  H    4.123033   3.721878   2.937423   2.344833   1.769240
    12  H    3.573551   3.991767   3.721878   4.123033   2.339443
    13  H    3.991767   3.573551   4.123033   3.721878   2.935987
                   11         12         13
    11  H    0.000000
    12  H    2.935987   0.000000
    13  H    2.339443   1.778746   0.000000
 Stoichiometry    C4H8O
 Framework group  C2V[C2(O),SGV(C4),X(H8)]
 Deg. of freedom    10
 Full point group                 C2V     NOp   4
 RotChk:  IX=0 Diff= 8.60D-15
 Largest Abelian subgroup         C2V     NOp   4
 Largest concise Abelian subgroup C2V     NOp   4
                         Standard orientation:                         
 ---------------------------------------------------------------------
 Center     Atomic      Atomic             Coordinates (Angstroms)
 Number     Number       Type             X           Y           Z
 ---------------------------------------------------------------------
      1          8           0        0.000000   -0.000000    1.252131
      2          6           0       -0.000000    1.180181    0.463389
      3          6           0       -0.000000    0.771978   -1.023815
      4          6           0       -0.000000   -0.771978   -1.023815
      5          6           0       -0.000000   -1.180181    0.463389
      6          1           0        0.889373    1.786776    0.717171
      7          1           0       -0.889373    1.786776    0.717171
      8          1           0        0.884620    1.172417   -1.540157
      9          1           0       -0.884620    1.172417   -1.540157
     10          1           0        0.884620   -1.172417   -1.540157
     11          1           0       -0.884620   -1.172417   -1.540157
     12          1           0        0.889373   -1.786776    0.717171
     13          1           0       -0.889373   -1.786776    0.717171
 ---------------------------------------------------------------------
 Rotational constants (GHZ):           6.9721371           6.9022430           3.7993205
 Leave Link  202 at Wed Jun 24 00:00:52 2026, MaxMem=  1879048192 cpu:               0.0 elap:               0.0
 (Enter /CH/g16/l601.exe)
 Copying SCF densities to generalized density rwf, IOpCl= 0 IROHF=0.

 **********************************************************************

            Population analysis using the SCF Density.

 **********************************************************************

 Orbital symmetries:
       Occupied  (A1) (A1) (B2) (A1) (B2) (A1) (A1) (B2) (B2) (A1)
                 (B1) (A1) (B2) (A2) (B1) (A1) (B2) (A2) (A1) (B1)
       Virtual   (A1) (B1) (B2) (A1) (A2) (B2) (A1) (B2) (B1) (A1)
                 (A2) (B2) (B2) (B1) (A1) (B2) (A1) (A1) (B2) (A2)
                 (B1) (B2) (A1) (A1) (B2) (A1) (B1) (B2) (A1) (A2)
                 (B2) (B1) (A2) (A2) (B2) (A1) (B1) (A1) (B2) (A1)
                 (B1) (A2) (A2) (B2) (B1) (A1) (B2) (B1) (A1) (A1)
                 (A2) (B2) (B1) (A1) (A2) (B2) (B1) (B1) (A1) (A2)
                 (B2) (B1) (B2) (A2) (A1) (A1) (A2) (A1) (B2) (B2)
                 (A1) (B2) (B1) (A1) (A2) (B2) (A1) (B2) (B1) (B2)
                 (A1) (B1) (A2) (B2) (A1) (A2) (B1) (A2) (A1) (B2)
 The electronic state is 1-A1.
 Alpha  occ. eigenvalues --  -19.11340 -10.21931 -10.21931 -10.17816 -10.17815
 Alpha  occ. eigenvalues --   -1.00976  -0.76136  -0.72220  -0.58036  -0.57452
 Alpha  occ. eigenvalues --   -0.48671  -0.47650  -0.42467  -0.41577  -0.39874
 Alpha  occ. eigenvalues --   -0.35091  -0.34127  -0.31320  -0.30701  -0.23520
 Alpha virt. eigenvalues --    0.05617   0.08158   0.10288   0.11855   0.12901
 Alpha virt. eigenvalues --    0.14115   0.14195   0.16970   0.17658   0.22111
 Alpha virt. eigenvalues --    0.22179   0.29558   0.34270   0.38862   0.47716
 Alpha virt. eigenvalues --    0.49184   0.49393   0.52125   0.52550   0.52883
 Alpha virt. eigenvalues --    0.59185   0.59640   0.59920   0.64138   0.64812
 Alpha virt. eigenvalues --    0.65734   0.66572   0.66824   0.67293   0.67396
 Alpha virt. eigenvalues --    0.70541   0.71372   0.72337   0.85472   0.87026
 Alpha virt. eigenvalues --    0.91226   0.96975   0.98240   1.20146   1.20814
 Alpha virt. eigenvalues --    1.35891   1.36269   1.37996   1.39652   1.40148
 Alpha virt. eigenvalues --    1.51294   1.58548   1.64489   1.67823   1.72928
 Alpha virt. eigenvalues --    1.73670   1.76254   1.76606   1.77607   1.79383
 Alpha virt. eigenvalues --    1.80483   1.81033   1.85720   1.86147   1.86510
 Alpha virt. eigenvalues --    1.88672   1.95643   1.96922   1.98658   2.04540
 Alpha virt. eigenvalues --    2.06592   2.16115   2.21801   2.23747   2.28616
 Alpha virt. eigenvalues --    2.34303   2.34626   2.38819   2.50395   2.58772
 Alpha virt. eigenvalues --    2.63941   2.67233   2.74913   2.77049   2.78787
 Alpha virt. eigenvalues --    2.81084   2.90286   2.90877   2.94563   3.04798
 Alpha virt. eigenvalues --    3.06284   3.06867   3.10244   3.28901   3.48963
          Condensed to atoms (all electrons):
               1          2          3          4          5          6
     1  O    7.985591   0.343321  -0.052949  -0.052949   0.343321  -0.035265
     2  C    0.343321   4.416354   0.432109  -0.072230  -0.086466   0.364681
     3  C   -0.052949   0.432109   4.653598   0.436132  -0.072230  -0.015659
     4  C   -0.052949  -0.072230   0.436132   4.653598   0.432109   0.001146
     5  C    0.343321  -0.086466  -0.072230   0.432109   4.416354   0.007199
     6  H   -0.035265   0.364681  -0.015659   0.001146   0.007199   0.742649
     7  H   -0.035265   0.364681  -0.015659   0.001146   0.007199  -0.053410
     8  H    0.002551  -0.005692   0.344159  -0.005366   0.003314  -0.017605
     9  H    0.002551  -0.005692   0.344159  -0.005366   0.003314   0.006643
    10  H    0.002551   0.003314  -0.005366   0.344159  -0.005692   0.000255
    11  H    0.002551   0.003314  -0.005366   0.344159  -0.005692  -0.000388
    12  H   -0.035265   0.007199   0.001146  -0.015659   0.364681   0.001385
    13  H   -0.035265   0.007199   0.001146  -0.015659   0.364681  -0.001161
               7          8          9         10         11         12
     1  O   -0.035265   0.002551   0.002551   0.002551   0.002551  -0.035265
     2  C    0.364681  -0.005692  -0.005692   0.003314   0.003314   0.007199
     3  C   -0.015659   0.344159   0.344159  -0.005366  -0.005366   0.001146
     4  C    0.001146  -0.005366  -0.005366   0.344159   0.344159  -0.015659
     5  C    0.007199   0.003314   0.003314  -0.005692  -0.005692   0.364681
     6  H   -0.053410  -0.017605   0.006643   0.000255  -0.000388   0.001385
     7  H    0.742649   0.006643  -0.017605  -0.000388   0.000255  -0.001161
     8  H    0.006643   0.697743  -0.030649  -0.019687   0.006725   0.000255
     9  H   -0.017605  -0.030649   0.697743   0.006725  -0.019687  -0.000388
    10  H   -0.000388  -0.019687   0.006725   0.697743  -0.030649  -0.017605
    11  H    0.000255   0.006725  -0.019687  -0.030649   0.697743   0.006643
    12  H   -0.001161   0.000255  -0.000388  -0.017605   0.006643   0.742649
    13  H    0.001385  -0.000388   0.000255   0.006643  -0.017605  -0.053410
              13
     1  O   -0.035265
     2  C    0.007199
     3  C    0.001146
     4  C   -0.015659
     5  C    0.364681
     6  H   -0.001161
     7  H    0.001385
     8  H   -0.000388
     9  H    0.000255
    10  H    0.006643
    11  H   -0.017605
    12  H   -0.053410
    13  H    0.742649
 Mulliken charges:
               1
     1  O   -0.435479
     2  C    0.227907
     3  C   -0.045221
     4  C   -0.045221
     5  C    0.227907
     6  H   -0.000470
     7  H   -0.000470
     8  H    0.017997
     9  H    0.017997
    10  H    0.017997
    11  H    0.017997
    12  H   -0.000470
    13  H   -0.000470
 Sum of Mulliken charges =  -0.00000
 Mulliken charges with hydrogens summed into heavy atoms:
               1
     1  O   -0.435479
     2  C    0.226967
     3  C   -0.009227
     4  C   -0.009227
     5  C    0.226967
 Electronic spatial extent (au):  <R**2>=            383.8905
 Charge=             -0.0000 electrons
 Dipole moment (field-independent basis, Debye):
    X=             -0.0000    Y=              0.0000    Z=             -2.0696  Tot=              2.0696
 Quadrupole moment (field-independent basis, Debye-Ang):
   XX=            -30.6651   YY=            -29.4317   ZZ=            -35.1451
   XY=              0.0000   XZ=             -0.0000   YZ=              0.0000
 Traceless Quadrupole moment (field-independent basis, Debye-Ang):
   XX=              1.0822   YY=              2.3156   ZZ=             -3.3978
   XY=              0.0000   XZ=             -0.0000   YZ=              0.0000
 Octapole moment (field-independent basis, Debye-Ang**2):
  XXX=              0.0000  YYY=             -0.0000  ZZZ=             -1.1811  XYY=              0.0000
  XXY=              0.0000  XXZ=              0.5087  XZZ=              0.0000  YZZ=             -0.0000
  YYZ=              2.7393  XYZ=              0.0000
 Hexadecapole moment (field-independent basis, Debye-Ang**3):
 XXXX=            -58.0310 YYYY=           -235.5914 ZZZZ=           -224.1538 XXXY=             -0.0000
 XXXZ=             -0.0000 YYYX=             -0.0000 YYYZ=              0.0000 ZZZX=             -0.0000
 ZZZY=              0.0000 XXYY=            -46.1682 XXZZ=            -43.5049 YYZZ=            -73.9543
 XXYZ=              0.0000 YYXZ=             -0.0000 ZZXY=             -0.0000
 N-N= 1.887410378063D+02 E-N=-9.176396580270D+02  KE= 2.298117398317D+02
 Symmetry A1   KE= 1.417090916358D+02
 Symmetry A2   KE= 4.164899152900D+00
 Symmetry B1   KE= 8.510631801094D+00
 Symmetry B2   KE= 7.542711724194D+01
 No NMR shielding tensors so no spin-rotation constants.
 Leave Link  601 at Wed Jun 24 00:00:52 2026, MaxMem=  1879048192 cpu:               0.3 elap:               0.1
 (Enter /CH/g16/l9999.exe)
 Unable to Open any file for archive entry.
 1\1\GINC-NODE0-CHCLUSTER\FOpt\RB3LYP\def2SVP\C4H8O1\LS\24-Jun-2026\0\\
 #p B3LYP/def2SVP EmpiricalDispersion=GD3BJ opt SCRF=(SMD,Solvent=Tetra
 hydrofuran) int=ultrafine\\THF\\0,1\O,0.,0.,-0.0691055421\C,1.18018130
 57,0.,0.7196365916\C,0.7719777974,0.,2.2068405957\C,-0.7719777974,0.,2
 .2068405957\C,-1.1801813057,0.,0.7196365916\H,1.786775678,0.8893728379
 ,0.4658546371\H,1.786775678,-0.8893728379,0.4658546371\H,1.1724165158,
 0.8846199622,2.7231831552\H,1.1724165158,-0.8846199622,2.7231831552\H,
 -1.1724165158,0.8846199622,2.7231831552\H,-1.1724165158,-0.8846199622,
 2.7231831552\H,-1.786775678,0.8893728379,0.4658546371\H,-1.786775678,-
 0.8893728379,0.4658546371\\Version=ES64L-G16RevC.02\State=1-A1\HF=-232
 .2934979\RMSD=5.079e-09\RMSF=1.127e-04\Dipole=0.,0.,0.8142458\Quadrupo
 le=1.7215961,0.8045864,-2.5261825,0.,0.,0.\PG=C02V [C2(O1),SGV(C4),X(H
 8)]\\@
 The archive entry for this job was punched.


 OF ALL THE WONDERS OF THE UNIVERSE, THE GREATEST IS MAN.

                                    -- ARISTOTLE
 Job cpu time:       0 days  0 hours  1 minutes 13.9 seconds.
 Elapsed time:       0 days  0 hours  0 minutes 11.2 seconds.
 File lengths (MBytes):  RWF=     28 Int=      0 D2E=      0 Chk=      4 Scr=      1
 Normal termination of Gaussian 16 at Wed Jun 24 00:00:52 2026.
