       9
 i =        1, E =       -97.8769379420
  P         2.1742837965        0.0036728420        1.7372200794
  P        -1.1340264467        1.9629344957        3.5000741328
  P         1.3531148286        2.1979045718        0.0471106091
  N         1.1770061798        1.1593851516        1.2818208187
  O         3.2630522761        0.5002349714        2.9028219755
  N         2.7984446242        2.5368174491        4.7420293017
  O         0.3261151683        1.6434539502        4.1482640320
  N        -1.1762262573        3.0095643417        2.2693071157
  O         0.8054514832        3.6390207873        0.5292848737
       9
 i =        2, E =       -97.8853073407
  P         2.1554892732        0.0107737590        1.7428499005
  P        -1.1555766203        1.9701863432        3.5021722203
  P         1.3316657266        2.2062985818        0.0482098545
  N         1.1923608084        1.1575055619        1.2565995779
  O         3.3355340698        0.4776517840        2.8723574637
  N         2.7289702473        2.5466616052        4.6839030772
  O         0.2891275677        1.6001033899        4.1685699268
  N        -1.1458762920        3.0227762143        2.3043552038
  O         0.8287070389        3.6636360733        0.5366711331
       9
 i =        3, E =       -97.8871293832
  P         2.1566750237        0.0176711666        1.7460634640
  P        -1.1597326893        1.9776714630        3.5078027904
  P         1.3167389731        2.2194092245        0.0424527311
  N         1.2191655051        1.1638195654        1.2404847169
  O         3.3313354625        0.4808116622        2.8945618689
  N         2.6906142490        2.5462267028        4.6529482583
  O         0.2673625234        1.5480703886        4.1883100553
  N        -1.1163789784        3.0328143870        2.3251426401
  O         0.8354989758        3.6879292389        0.5194781942
       9
 i =        4, E =       -97.8878847911
  P         2.1519090548        0.0196197982        1.7455967682
  P        -1.1577444123        1.9734639460        3.5062897432
  P         1.3205283691        2.2230515344        0.0420738834
  N         1.2351546991        1.1815741702        1.2517366966
  O         3.3231366935        0.4818101977        2.8994009663
  N         2.6777205362        2.5552884530        4.6250503002
  O         0.2566971527        1.5319392012        4.2064241555
  N        -1.1031858968        3.0253948296        2.3226748159
  O         0.8181953613        3.6847322196        0.5012089075
       9
 i =        5, E =       -97.8881439154
  P         2.1499382637        0.0205791356        1.7467859718
  P        -1.1636765289        1.9680359887        3.5048501844
  P         1.3209444117        2.2294058555        0.0416523364
  N         1.2550567639        1.2035643410        1.2689221659
  O         3.3330448892        0.4792524461        2.8912045687
  N         2.6667086449        2.5605025650        4.6081253738
  O         0.2336481089        1.5239876132        4.2313576280
  N        -1.0904451528        3.0092650309        2.3064750826
  O         0.8099598287        3.6842288474        0.4875422848
       9
 i =        6, E =       -97.8883267915
  P         2.1517541766        0.0219730864        1.7509512845
  P        -1.1584657734        1.9623301505        3.5039749464
  P         1.3188856981        2.2293712523        0.0430109047
  N         1.2525115109        1.2077522772        1.2798419759
  O         3.3303763013        0.4775273147        2.8946468054
  N         2.6693541406        2.5560282309        4.6100666922
  O         0.2446047010        1.5428953890        4.2186056292
  N        -1.0920337290        3.0028068603        2.2978680857
  O         0.8075630698        3.6807403143        0.4905380720
       9
 i =        7, E =       -97.8884049831
  P         2.1513925006        0.0230910290        1.7533060465
  P        -1.1549093265        1.9623146544        3.5049078074
  P         1.3178194153        2.2305424204        0.0432218976
  N         1.2502712360        1.2054177833        1.2783131996
  O         3.3299376142        0.4788844556        2.8963983022
  N         2.6685804170        2.5552056987        4.6091554299
  O         0.2454342122        1.5317270212        4.2227929720
  N        -1.0931041860        3.0063612573        2.3020419358
  O         0.8074863118        3.6820944249        0.4910099523
       9
 i =        8, E =       -97.8884292662
  P         2.1507166533        0.0230442196        1.7542530160
  P        -1.1565202453        1.9609922294        3.5070366210
  P         1.3171760587        2.2310088166        0.0428730286
  N         1.2495640077        1.2048958929        1.2787996696
  O         3.3303156857        0.4782083975        2.8952599687
  N         2.6690860196        2.5547843438        4.6122094253
  O         0.2432744004        1.5295042628        4.2239366929
  N        -1.0937055670        3.0081406702        2.3061875410
  O         0.8065932698        3.6822207212        0.4889411791
       9
 i =        9, E =       -97.8884586624
  P         2.1481203673        0.0237836169        1.7584993702
  P        -1.1568886906        1.9599305433        3.5094542270
  P         1.3160079710        2.2316241108        0.0443115098
  N         1.2470156041        1.2050263407        1.2821797474
  O         3.3318784274        0.4784382363        2.8935323082
  N         2.6700282662        2.5521478849        4.6168506306
  O         0.2424531094        1.5292973365        4.2243159518
  N        -1.0968627630        3.0098415996        2.3102093854
  O         0.8032706088        3.6810112071        0.4884832166
       9
 i =       10, E =       -97.8885327910
  P         2.1397094878        0.0271808817        1.7714231929
  P        -1.1579810184        1.9564504816        3.5166738265
  P         1.3111103913        2.2335381589        0.0508504152
  N         1.2399178455        1.2087917918        1.2956188902
  O         3.3327423244        0.4779482467        2.8927286453
  N         2.6698259269        2.5443661006        4.6283663131
  O         0.2402232224        1.5291187776        4.2260868094
  N        -1.1048371290        3.0130566728        2.3206954861
  O         0.7885640760        3.6776471384        0.4847710875
       9
 i =       11, E =       -97.8871638092
  P         2.0939159929        0.0444391615        1.8349858350
  P        -1.1641117565        1.9420766988        3.5525216461
  P         1.2849173752        2.2432232790        0.0826259324
  N         1.2077001157        1.2342462687        1.3631969413
  O         3.3379622837        0.4772497381        2.8867534538
  N         2.6628882532        2.5112414338        4.6790882415
  O         0.2295218979        1.5250431186        4.2341533267
  N        -1.1448626554        3.0246155806        2.3682962292
  O         0.7009400566        3.6582725547        0.4644547526
       9
 i =       12, E =       -97.8886082526
  P         2.1283071170        0.0310328160        1.7839171521
  P        -1.1602122745        1.9545131491        3.5253451823
  P         1.3046766809        2.2354893583        0.0589626644
  N         1.2319314470        1.2149211048        1.3089587879
  O         3.3311960421        0.4783200095        2.8919625701
  N         2.6670411085        2.5374287344        4.6400768716
  O         0.2387674242        1.5284489396        4.2270155211
  N        -1.1144781394        3.0165013906        2.3333355363
  O         0.7697520312        3.6744507355        0.4813027738
       9
 i =       13, E =       -97.8886211321
  P         2.1335525816        0.0299890747        1.7766569687
  P        -1.1600237884        1.9579337059        3.5186384272
  P         1.3069032603        2.2344983681        0.0556302010
  N         1.2370856561        1.2145846065        1.3021205607
  O         3.3303359718        0.4781388532        2.8944153442
  N         2.6644829426        2.5430427123        4.6286161356
  O         0.2389531399        1.5295113733        4.2261893005
  N        -1.1102740139        3.0142845169        2.3230213386
  O         0.7805914296        3.6769024206        0.4867522820
       9
 i =       14, E =       -97.8886760924
  P         2.1289738917        0.0315646717        1.7810241192
  P        -1.1619353508        1.9582803902        3.5222215300
  P         1.3037398143        2.2357585928        0.0591824220
  N         1.2338573013        1.2173970816        1.3068204846
  O         3.3287809792        0.4787940985        2.8943117233
  N         2.6626099411        2.5411915960        4.6334751947
  O         0.2380490979        1.5297189966        4.2264559677
  N        -1.1150509927        3.0160352282        2.3274069462
  O         0.7716445390        3.6764732055        0.4849761654
       9
 i =       15, E =       -97.8887031445
  P         2.1217800002        0.0349502479        1.7857116961
  P        -1.1665220092        1.9610786217        3.5268403394
  P         1.2977891753        2.2377144401        0.0643546361
  N         1.2288201356        1.2238711405        1.3132066748
  O         3.3252330684        0.4803624121        2.8942220011
  N         2.6568176317        2.5418137103        4.6378127169
  O         0.2361435319        1.5296534592        4.2261577988
  N        -1.1232787333        3.0194678313        2.3319231164
  O         0.7578240471        3.6763008637        0.4849513269
       9
 i =       16, E =       -97.8887224035
  P         2.1250709392        0.0337105493        1.7814452406
  P        -1.1663638004        1.9621422779        3.5246062010
  P         1.2992125548        2.2374372206        0.0630392703
  N         1.2309128911        1.2225879685        1.3100725119
  O         3.3252077483        0.4804206959        2.8940953189
  N         2.6567794723        2.5442112189        4.6344303804
  O         0.2366454443        1.5305302331        4.2261018716
  N        -1.1211424884        3.0190951354        2.3287321971
  O         0.7631882605        3.6783404349        0.4854123513
       9
 i =       17, E =       -97.8887259254
  P         2.1260922244        0.0343261319        1.7807277150
  P        -1.1671599983        1.9631044132        3.5238433864
  P         1.2991583427        2.2371908159        0.0622237803
  N         1.2313591331        1.2232323819        1.3094456656
  O         3.3256945483        0.4800143238        2.8946641832
  N         2.6561234865        2.5456690811        4.6332573034
  O         0.2359826853        1.5300212272        4.2261229924
  N        -1.1211725364        3.0203518491        2.3281673993
  O         0.7637545768        3.6780414776        0.4869643043
       9
 i =       18, E =       -97.8887182668
  P         2.1260922244        0.0343261319        1.7807277150
  P        -1.1671599983        1.9631044132        3.5238433864
  P         1.2991583427        2.2371908159        0.0622237803
  N         1.2313591331        1.2232323819        1.3094456656
  O         3.3256945483        0.4800143238        2.8946641832
  N         2.6561234865        2.5456690811        4.6332573034
  O         0.2359826853        1.5300212272        4.2261229924
  N        -1.1211725364        3.0203518491        2.3281673993
  O         0.7637545768        3.6780414776        0.4869643043
