      11
 i =        1, E =      -127.2265780277
 Si         2.2190959316        0.0437806568        1.8632695717
 Si        -1.0447296513        1.8868824972        3.6066397535
  P         1.2455314082        2.3430048004       -0.0391851221
  O         1.0960470124        0.9944486704        1.0515009699
  O         3.1744660422        0.4507200752        3.1468979905
  O         2.7987942409        2.5574326382        4.7931952536
  O         0.5002025550        1.5237114398        3.9921785860
  O        -1.0831700531        2.9738931035        2.3766389838
  O         0.6172527988        3.8469764117        0.4134358638
  O         1.5197899362        2.4216233893        1.5404379005
  H         1.1325775538        4.0321693806        1.3833994338
      11
 i =        2, E =      -127.3035402159
 Si         2.2768009371        0.0442103700        1.9416430653
 Si        -1.0017172928        1.9065427260        3.6585824801
  P         1.2036105997        2.3535123242       -0.0081959967
  O         0.9842289914        0.7763882389        0.9129224109
  O         3.1416718197        0.4593316741        3.3059262952
  O         2.7411312366        2.6095535191        4.7787595833
  O         0.5674315813        1.4319102201        3.9634576019
  O        -1.0472960072        2.9822937906        2.4256877815
  O         0.5414877744        3.9313647662        0.3031591461
  O         1.3922053151        2.3458342811        1.6500863898
  H         1.3575889447        4.2580622292        1.2353122702
      11
 i =        3, E =      -127.3586893807
 Si         2.2939836385       -0.0234504936        1.9032537237
 Si        -1.0504179111        1.9280246087        3.6656429281
  P         1.2414983925        2.2727068418        0.0827412531
  O         0.9461863051        0.6966969070        0.9814623678
  O         3.1247482448        0.4939867263        3.2544547197
  O         2.7277245377        2.6386364916        4.8059296374
  O         0.5142671602        1.5223029656        4.0279758789
  O        -1.0875768574        2.9827668319        2.4272868017
  O         0.5456360350        3.8969395306        0.2046352644
  O         1.4246563847        2.3631425717        1.7401654126
  H         1.4682025555        4.3459592169        1.1061339545
      11
 i =        4, E =      -127.4012782921
 Si         2.3219379457       -0.1607984966        1.8166999372
 Si        -1.1440942200        1.9594661639        3.6651096446
  P         1.3285115850        2.1316916797        0.2689519877
  O         0.8903950881        0.5416225385        1.0895011914
  O         3.1085003580        0.5565939756        3.1220568561
  O         2.7140731604        2.6637678387        4.8540176824
  O         0.3919719061        1.7046846388        4.2040477444
  O        -1.1642573683        2.9837238113        2.4335807389
  O         0.5569323777        3.8382230506        0.0106390693
  O         1.4852178972        2.4202884550        1.9174956116
  H         1.6710849420        4.4952649258        0.8561339545
      11
 i =        5, E =      -127.4348916792
 Si         2.2986702611       -0.1424629508        1.8029511964
 Si        -1.1456198442        1.9391430312        3.6834009623
  P         1.2666187741        2.1690655053        0.2518467775
  O         0.8797202350        0.5799396440        1.0594675933
  O         3.1458417201        0.5602656105        3.0557207945
  O         2.6834885705        2.5788565613        4.8864709784
  O         0.3790074658        1.6439865053        4.2114401989
  O        -1.1418822216        2.9847545814        2.4697051275
  O         0.6242963121        3.8966496117        0.0612077734
  O         1.4736919246        2.4480509652        1.8790258155
  H         1.6688128384        4.5052935957        0.9044765937
      11
 i =        6, E =      -127.4798340007
 Si         2.2414800697       -0.1883985811        1.7496066247
 Si        -1.1755773674        1.8743098904        3.7075789378
  P         1.1462546875        2.1956261469        0.3196182423
  O         0.8223648453        0.5624778063        1.0115673820
  O         3.2422056014        0.5646125091        2.8201794767
  O         2.5975961941        2.3333731959        4.9612474041
  O         0.3226505726        1.6180652613        4.2923731818
  O        -1.2019925370        3.0597889103        2.6451662180
  O         0.8398591826        4.0245577061        0.1613716368
  O         1.3762532471        2.5155201190        1.8914824691
  H         1.7929017557        4.6103982077        0.9355275379
      11
 i =        7, E =      -127.5061618627
 Si         2.2339683840       -0.1962544969        1.7896073149
 Si        -1.1982987361        1.8709139509        3.7134843293
  P         1.1427875044        2.1940478227        0.2954972644
  O         0.8690376878        0.5637689996        0.9550278417
  O         3.3104770604        0.5648742505        2.7737479462
  O         2.6211257726        2.3025745337        5.0052216927
  O         0.3080645144        1.6341631205        4.2758325415
  O        -1.2618025137        3.1459693116        2.7413410373
  O         0.8126444388        3.9747124287        0.2306058961
  O         1.2741355318        2.5290018213        1.8528950198
  H         1.8074166467        4.5772266489        0.9445903055
      11
 i =        8, E =      -127.5412456927
 Si         2.2746654123       -0.2428672207        1.8297955142
 Si        -1.2372790203        1.9232582138        3.7312778521
  P         1.1454563370        2.1489301692        0.3091292530
  O         0.9502563615        0.5005826118        0.8809085797
  O         3.3672266689        0.6497905063        2.7194329321
  O         2.6473218822        2.2479394680        5.1093663474
  O         0.2771109579        1.6884267998        4.2798185191
  O        -1.3276952744        3.2879170548        2.8672466927
  O         0.7813957186        3.8922901424        0.2608452052
  O         1.0241355318        2.5328311152        1.8648417984
  H         1.9034195993        4.5285373025        0.8696856110
      11
 i =        9, E =      -127.5562575547
 Si         2.3251653213       -0.2839256185        1.8205840087
 Si        -1.2538827769        1.9871146801        3.7389248428
  P         1.1566747099        2.1048931248        0.3424131574
  O         0.9939438272        0.4461556192        0.8334262762
  O         3.3163909573        0.7763701596        2.6943197459
  O         2.6795029338        2.1912453565        5.2020676110
  O         0.2527835081        1.7107663327        4.3256704008
  O        -1.3502223326        3.4254665544        2.9697602927
  O         0.8178881100        3.8414953352        0.2510738207
  O         0.7741355318        2.5020409727        1.9170366142
  H         1.9954599228        4.4215449345        0.7933649013
      11
 i =       10, E =      -127.5696571407
 Si         2.3316821040       -0.2529021223        1.8050127810
 Si        -1.2358808058        2.0274995724        3.7058725199
  P         1.1702134224        2.0948905813        0.3408852827
  O         0.9835898376        0.4704843428        0.8531521821
  O         3.2201983792        0.8261407755        2.7445601637
  O         2.6813847238        2.2085250681        5.1622612121
  O         0.2606000666        1.7177902311        4.3319188804
  O        -1.3126554255        3.4390955540        2.9218447427
  O         0.8612771199        3.8209869431        0.2646970727
  O         0.8220222667        2.4435844786        1.9132214120
  H         1.9600180579        4.2910728226        0.8309195458
      11
 i =       11, E =      -127.5818741303
 Si         2.3201190159       -0.2688022428        1.7759841226
 Si        -1.2586854547        2.0383786417        3.7020601860
  P         1.1334257927        2.0903351603        0.3549152136
  O         1.0273563928        0.5092086615        0.8667668659
  O         3.1836383592        0.8543132068        2.6846591704
  O         2.6373169540        2.1850883992        5.1490120158
  O         0.2373860904        1.7471192567        4.3467185189
  O        -1.3039100309        3.4635522806        2.9453254418
  O         0.9709422160        3.8503606020        0.2758500596
  O         0.8277557589        2.4333003256        1.9027150492
  H         1.9517796040        4.1728685574        0.8330659542
      11
 i =       12, E =      -127.5813127544
 Si         2.3096354869       -0.2680769625        1.7827532071
 Si        -1.2860643733        2.0601104485        3.6962401977
  P         1.1138929605        2.0793495511        0.3682313859
  O         1.1202774236        0.5567515831        0.8617632574
  O         3.1667034570        0.8813283712        2.6258322635
  O         2.5981029035        2.2063884652        5.1109765499
  O         0.2055469002        1.7953793091        4.3835953889
  O        -1.2642672536        3.4889045059        2.9658785051
  O         1.1212251288        3.8760743299        0.3018082221
  O         0.7445903453        2.4022388805        1.9110153567
  H         1.8971723694        3.9624179846        0.8109800689
      11
 i =       13, E =      -127.5977255646
 Si         2.3253183868       -0.2583804914        1.8269509061
 Si        -1.2772583041        2.0542056398        3.7081117790
  P         1.1244361273        2.0750732092        0.3588412529
  O         1.1184282488        0.5259436562        0.8480519793
  O         3.2116679844        0.8520821551        2.6724894031
  O         2.6106476798        2.2204211241        5.1194571463
  O         0.2130604941        1.7723218621        4.3758590431
  O        -1.2720307259        3.4681474322        2.9560116927
  O         0.9983062315        3.8440705441        0.2737382396
  O         0.7488852986        2.4305958927        1.9083856488
  H         1.9348575697        4.0854275846        0.7725292779
      11
 i =       14, E =      -127.6030869802
 Si         2.3210815626       -0.2495658787        1.8497998316
 Si        -1.2742994978        2.0567713740        3.7074611798
  P         1.1347300974        2.0659042602        0.3466266017
  O         1.1579927192        0.5250267416        0.8170493512
  O         3.2173895036        0.8546267856        2.6724630100
  O         2.6299038233        2.2139622168        5.1232298490
  O         0.2041153388        1.7539008776        4.3924411957
  O        -1.3044358635        3.5123346901        2.9932835948
  O         1.0026701012        3.8293832222        0.2768987419
  O         0.7199018603        2.4293673921        1.8961291061
  H         1.9248963220        4.0709440538        0.7392404512
      11
 i =       15, E =      -127.6079166701
 Si         2.3056295174       -0.2286144444        1.8997910179
 Si        -1.2621674159        2.0816769357        3.7131368217
  P         1.1609207849        2.0345582169        0.3360088504
  O         1.2324645557        0.5117410565        0.7770362247
  O         3.2290519401        0.8713276850        2.6723598711
  O         2.6606684147        2.2509204473        5.1114199510
  O         0.1951351511        1.7246682007        4.4179145056
  O        -1.3214747671        3.5093153630        2.9721532575
  O         1.0102013507        3.8007632889        0.2637343603
  O         0.6506852419        2.4135768678        1.8949586320
  H         1.8769021689        4.0460956613        0.6493962060
      11
 i =       16, E =      -127.6101875477
 Si         2.3067641204       -0.2235569054        1.8889211868
 Si        -1.2584905606        2.0638089525        3.7172399936
  P         1.1557968115        2.0361236306        0.3419959240
  O         1.2142299144        0.5013135513        0.7841936842
  O         3.2358135293        0.8531706205        2.6755526567
  O         2.6553364481        2.2381972719        5.1086057452
  O         0.2045790280        1.7270118061        4.4012086353
  O        -1.3204462672        3.5075391836        2.9803287538
  O         1.0029669585        3.8101781389        0.2472042476
  O         0.6742198064        2.4203896633        1.8961904795
  H         1.8869754132        4.1032353086        0.6287054310
      11
 i =       17, E =      -127.6108641427
 Si         2.3026085022       -0.2190587382        1.8863178859
 Si        -1.2540855467        2.0618681267        3.7170883418
  P         1.1486921206        2.0389479981        0.3487794395
  O         1.2147650107        0.5027516531        0.7980445817
  O         3.2306935394        0.8546977239        2.6830313869
  O         2.6550105520        2.2064707806        5.1177459337
  O         0.2150174923        1.7409827173        4.3770156833
  O        -1.3253961251        3.5023475895        2.9721270422
  O         0.9994649240        3.8149352901        0.2398892443
  O         0.6980839169        2.4310978061        1.8902139340
  H         1.8807919823        4.1330264108        0.6058111053
      11
 i =       18, E =      -127.6117420853
 Si         2.2984620623       -0.2176285293        1.8887525495
 Si        -1.2533535234        2.0677676468        3.7295696594
  P         1.1524146717        2.0398661985        0.3552247886
  O         1.2174256718        0.4952737428        0.7942853501
  O         3.2210938456        0.8690849685        2.6852247901
  O         2.6576950926        2.2197425025        5.1241240760
  O         0.2139530565        1.7341049128        4.3867911584
  O        -1.3277959093        3.5037550281        2.9792615023
  O         0.9979293827        3.8099134485        0.2350609707
  O         0.6854567496        2.4262945565        1.8940828496
  H         1.8767210701        4.1355168646        0.5798487042
      11
 i =       19, E =      -127.6124074787
 Si         2.2933078641       -0.2090120909        1.9001541997
 Si        -1.2554705103        2.0727804176        3.7402226764
  P         1.1508690071        2.0465350776        0.3683317745
  O         1.2204787570        0.4976415325        0.8037614018
  O         3.2203276429        0.8755388716        2.6933683998
  O         2.6534193862        2.2277394184        5.1277148474
  O         0.2073177738        1.7250916263        4.4032258180
  O        -1.3284211397        3.5022994801        2.9804191519
  O         0.9889584409        3.8056148765        0.2334633693
  O         0.6744529958        2.4306933070        1.8980577953
  H         1.8695397829        4.1443416998        0.5435451250
      11
 i =       20, E =      -127.6129367120
 Si         2.2902391008       -0.2000190527        1.9125231420
 Si        -1.2550310451        2.0741620080        3.7542197533
  P         1.1519557610        2.0602328071        0.3859553798
  O         1.2176908490        0.5044864145        0.8247454439
  O         3.2196970179        0.8766706525        2.7125409428
  O         2.6522969824        2.2318138288        5.1360513908
  O         0.2094545225        1.7241902004        4.4123839193
  O        -1.3289959791        3.5000021982        2.9864495778
  O         0.9796547310        3.8020412777        0.2347353860
  O         0.6759630972        2.4370770733        1.9031163243
  H         1.8628462500        4.1549497140        0.5061601984
      11
 i =       21, E =      -127.6131134005
 Si         2.2918418783       -0.1957357273        1.9223486225
 Si        -1.2543757986        2.0751655085        3.7583341076
  P         1.1525848581        2.0686052776        0.3918992495
  O         1.2152268642        0.5067730655        0.8282746126
  O         3.2259142497        0.8718412993        2.7258904002
  O         2.6554975981        2.2258531015        5.1451097554
  O         0.2100481240        1.7224253430        4.4168415510
  O        -1.3317861815        3.5010800810        2.9900953170
  O         0.9775303978        3.8003903994        0.2379837134
  O         0.6684430732        2.4380016201        1.9059294916
  H         1.8663946327        4.1601685659        0.4860874047
      11
 i =       22, E =      -127.6132611742
 Si         2.2923615264       -0.1967393693        1.9231964496
 Si        -1.2541833859        2.0733432667        3.7587507007
  P         1.1549732396        2.0714472949        0.3901113888
  O         1.2147804937        0.5135302726        0.8305919107
  O         3.2306543464        0.8644035768        2.7287203850
  O         2.6562811567        2.2305132372        5.1437999380
  O         0.2105068608        1.7220958793        4.4174935419
  O        -1.3328295237        3.4974045673        2.9902961316
  O         0.9790873384        3.7999396574        0.2370011471
  O         0.6741416508        2.4423307832        1.9037308305
  H         1.8705945282        4.1615233001        0.4776299546
      11
 i =       23, E =      -127.6134709461
 Si         2.2917516421       -0.2007737919        1.9185743205
 Si        -1.2524886318        2.0698017191        3.7537107966
  P         1.1579556532        2.0746205429        0.3839373498
  O         1.2116267223        0.5224517094        0.8273268478
  O         3.2303554402        0.8540153307        2.7297965002
  O         2.6590672131        2.2304222955        5.1411483530
  O         0.2137392174        1.7270545085        4.4122418728
  O        -1.3371858502        3.4923963296        2.9874356404
  O         0.9870988751        3.8016811878        0.2341238938
  O         0.6743893602        2.4448497944        1.9020494221
  H         1.8805684904        4.1594012670        0.4668476923
      11
 i =       24, E =      -127.6136607869
 Si         2.2854607824       -0.2069462019        1.9127790557
 Si        -1.2501254551        2.0629935608        3.7464991713
  P         1.1606844947        2.0812077336        0.3745799915
  O         1.2055614601        0.5344305498        0.8242440490
  O         3.2189916166        0.8368250326        2.7403064910
  O         2.6632946127        2.2313153970        5.1369750485
  O         0.2189430432        1.7313683552        4.4005120112
  O        -1.3494651855        3.4769605419        2.9746903092
  O         0.9918981293        3.8040923025        0.2273094303
  O         0.6765739247        2.4486935115        1.8980813697
  H         1.8908827361        4.1650405634        0.4416489235
      11
 i =       25, E =      -127.6137867221
 Si         2.2796899361       -0.2084072391        1.9112086059
 Si        -1.2518628863        2.0640665350        3.7456055885
  P         1.1580782166        2.0794078439        0.3729836619
  O         1.2044645669        0.5325714196        0.8222195864
  O         3.2106009918        0.8407395916        2.7382793089
  O         2.6635414457        2.2285817536        5.1399623806
  O         0.2179939644        1.7312674403        4.3954190381
  O        -1.3588665702        3.4772223322        2.9724138755
  O         0.9890126807        3.8021550263        0.2255501609
  O         0.6707385706        2.4465941808        1.8968557615
  H         1.8890464039        4.1645441928        0.4340090531
      11
 i =       26, E =      -127.6138877879
 Si         2.2726519040       -0.2067977149        1.9139213287
 Si        -1.2576577157        2.0610251707        3.7485728000
  P         1.1516760013        2.0776832347        0.3750192647
  O         1.2038585926        0.5269563726        0.8225665346
  O         3.2070998296        0.8408273488        2.7349792030
  O         2.6596000690        2.2277505224        5.1426315884
  O         0.2133425588        1.7288656921        4.3941868851
  O        -1.3615417340        3.4752167017        2.9727885394
  O         0.9821164125        3.8020619946        0.2245146013
  O         0.6633085681        2.4428642645        1.8973768537
  H         1.8815220645        4.1634705565        0.4284231791
      11
 i =       27, E =      -127.6139179129
 Si         2.2681205873       -0.2077945225        1.9152561431
 Si        -1.2609132152        2.0577017894        3.7487119996
  P         1.1483348589        2.0769003022        0.3753942867
  O         1.2006905171        0.5268814010        0.8249287730
  O         3.2044511655        0.8373514856        2.7355898270
  O         2.6568462234        2.2272900148        5.1428563491
  O         0.2108016320        1.7257191176        4.3941917989
  O        -1.3642684849        3.4723329625        2.9730022937
  O         0.9779459021        3.8000463200        0.2242253208
  O         0.6603921436        2.4421708040        1.8966528539
  H         1.8803554277        4.1605213730        0.4225972544
      11
 i =       28, E =      -127.6139315891
 Si         2.2662901976       -0.2078898036        1.9173101697
 Si        -1.2640414554        2.0567203649        3.7491404598
  P         1.1441077641        2.0742698181        0.3765933093
  O         1.1981621129        0.5243186104        0.8265035342
  O         3.2065037499        0.8385521066        2.7326123747
  O         2.6522280430        2.2270954681        5.1423281518
  O         0.2083852443        1.7235371881        4.3951433851
  O        -1.3622897725        3.4742212335        2.9767982123
  O         0.9740195724        3.7973463015        0.2256407523
  O         0.6567543795        2.4402966017        1.8962723223
  H         1.8795223527        4.1525215069        0.4242097031
      11
 i =       29, E =      -127.6139415928
 Si         2.2645758592       -0.2093205084        1.9164048735
 Si        -1.2642047321        2.0548152133        3.7478507585
  P         1.1439253080        2.0746610905        0.3744375469
  O         1.1968443806        0.5245297740        0.8246301294
  O         3.2048768693        0.8362620827        2.7330866719
  O         2.6526454354        2.2272855065        5.1412490259
  O         0.2096079029        1.7247301459        4.3921541729
  O        -1.3634448390        3.4721567980        2.9758312386
  O         0.9741652929        3.7977945695        0.2245887701
  O         0.6564757268        2.4402661134        1.8953033567
  H         1.8801611939        4.1501636082        0.4231158582
      11
 i =       30, E =      -127.6139476367
 Si         2.2644754220       -0.2095700468        1.9156618563
 Si        -1.2639024629        2.0548066215        3.7474665907
  P         1.1445021982        2.0743377454        0.3742569005
  O         1.1962909917        0.5240785934        0.8245543829
  O         3.2043683803        0.8366488305        2.7334542614
  O         2.6538728227        2.2260344623        5.1419769608
  O         0.2095714026        1.7243155151        4.3926141945
  O        -1.3635013255        3.4722130231        2.9754759125
  O         0.9749411791        3.7979046024        0.2232914380
  O         0.6573263888        2.4409962961        1.8952736233
  H         1.8813308413        4.1504060680        0.4214633289
      11
 i =       31, E =      -127.6139539294
 Si         2.2640969472       -0.2097586319        1.9155484497
 Si        -1.2638643394        2.0544731162        3.7473457665
  P         1.1444571166        2.0735824561        0.3739034469
  O         1.1959005889        0.5225633134        0.8243875415
  O         3.2049468287        0.8367294306        2.7338790942
  O         2.6542926257        2.2254716177        5.1419553233
  O         0.2096816267        1.7238439138        4.3925670324
  O        -1.3633587233        3.4724792465        2.9757238468
  O         0.9752732755        3.7975465414        0.2210750217
  O         0.6583066704        2.4416041753        1.8950074188
  H         1.8823772674        4.1487343164        0.4183578157
      11
 i =       32, E =      -127.6139595605
 Si         2.2630864642       -0.2099589523        1.9150013999
 Si        -1.2641821934        2.0537886453        3.7473663256
  P         1.1440652280        2.0724820627        0.3728981365
  O         1.1950363254        0.5207705129        0.8241587215
  O         3.2052630498        0.8367663002        2.7332973782
  O         2.6545321863        2.2248949989        5.1420715163
  O         0.2097768758        1.7230833249        4.3919286139
  O        -1.3627596624        3.4722077522        2.9758582968
  O         0.9747316030        3.7963974002        0.2176747954
  O         0.6596596011        2.4422194322        1.8943330113
  H         1.8830292050        4.1454739664        0.4140563724
      11
 i =       33, E =      -127.6139711177
 Si         2.2614889195       -0.2097742508        1.9143146487
 Si        -1.2645110588        2.0527816031        3.7472987904
  P         1.1433436199        2.0710624773        0.3708876635
  O         1.1938492247        0.5181545342        0.8238774671
  O         3.2055017842        0.8362440364        2.7328399862
  O         2.6547712094        2.2240689891        5.1418449776
  O         0.2099559259        1.7211391048        4.3905834821
  O        -1.3626164005        3.4722631209        2.9762441754
  O         0.9730568997        3.7939388597        0.2104079336
  O         0.6621171348        2.4433799103        1.8929499330
  H         1.8832032365        4.1398502632        0.4040366008
      11
 i =       34, E =      -127.4082140200
 Si         2.4633371238       -0.3487634572        1.9710771472
 Si        -1.2316703285        2.1463920609        3.6437437047
  P         1.1556660219        2.0945195611        0.4374350301
  O         1.1204225485        0.6821874268        0.7493993660
  O         3.1395781039        0.8482296183        2.6341345289
  O         2.6483169755        2.1642752456        5.1918176225
  O         0.1504878606        1.6803013105        4.3653466732
  O        -1.3408361437        3.3088401637        2.9691634665
  O         0.8719984454        3.7438265671       -0.0395920664
  O         0.5641558840        2.4191321500        1.8927751988
  H         1.7879840098        4.2435388787        0.3942935809
      11
 i =       35, E =      -127.5625753948
 Si         2.3427069369       -0.2882131331        1.9337046723
 Si        -1.2535911075        2.0817619907        3.6840165607
  P         1.1309566356        2.0472205974        0.3591335345
  O         1.1196410958        0.5447558655        0.7714882978
  O         3.1716776400        0.8287048718        2.6660645331
  O         2.6550964030        2.1678917728        5.1636810411
  O         0.1792004582        1.6449116216        4.3416344163
  O        -1.3461184456        3.3817906530        2.9885015869
  O         0.8728325041        3.6984049008       -0.1258275766
  O         0.6708593219        2.4569232944        1.8576195440
  H         1.8327927436        4.0434172637        0.1442935809
      11
 i =       36, E =      -127.5742254807
 Si         2.3523160967       -0.2730970483        1.9396340958
 Si        -1.2491481354        2.0943626908        3.6995361370
  P         1.1484500929        2.0800137746        0.3990475270
  O         1.1603745922        0.5922393215        0.7897355072
  O         3.1755827568        0.8413099598        2.6856026604
  O         2.6524225801        2.1953477622        5.1640494331
  O         0.1830161275        1.6989921247        4.3772968980
  O        -1.3524345935        3.3970848228        2.9733417947
  O         0.9252579027        3.7687337751        0.0904952324
  O         0.6195337550        2.4338626155        1.8910055930
  H         1.8371089175        4.1841987392        0.3942935809
      11
 i =       37, E =      -127.6064467667
 Si         2.2278810848       -0.2204355913        1.9015396959
 Si        -1.2718804494        2.0500875148        3.7422586686
  P         1.1351240606        2.0287399137        0.3474494549
  O         1.2303497186        0.5184061254        0.8695680145
  O         3.2115622475        0.8428946041        2.7132617666
  O         2.6523217289        2.2295581995        5.1179632326
  O         0.2081706890        1.6953878788        4.3906825207
  O        -1.3338882652        3.4432194610        2.9784130106
  O         0.9648023636        3.7643945950        0.1672045094
  O         0.6930615637        2.4928777447        1.8779015597
  H         1.8652514517        4.0527086318        0.3714122219
      11
 i =       38, E =      -127.6130604386
 Si         2.2577797542       -0.2171424810        1.9156588729
 Si        -1.2564810911        2.0502487464        3.7434097622
  P         1.1423877624        2.0627858212        0.3574306868
  O         1.1795861709        0.5201083580        0.8296249437
  O         3.2175873793        0.8320150289        2.7136169912
  O         2.6679444166        2.2112931210        5.1485597784
  O         0.2133319430        1.6683024730        4.3824859598
  O        -1.3465162174        3.4436341866        2.9934757803
  O         0.9410832905        3.7657324705        0.1280702356
  O         0.6834261280        2.4730069751        1.8790955204
  H         1.8524473994        4.1171652285        0.3293918414
      11
 i =       39, E =      -127.6140475874
 Si         2.2619362179       -0.2039217552        1.9189743599
 Si        -1.2500398946        2.0520474764        3.7469298228
  P         1.1474017425        2.0678200518        0.3647121319
  O         1.1906411625        0.5217876062        0.8359773734
  O         3.2056521647        0.8361439220        2.7339177326
  O         2.6691171958        2.2190023229        5.1442581476
  O         0.2220871303        1.6676859171        4.3846922749
  O        -1.3480010149        3.4616607934        2.9944111318
  O         0.9433652528        3.7689380704        0.1479294577
  O         0.6745691408        2.4697201491        1.8848184598
  H         1.8473616522        4.1369347031        0.3376259416
      11
 i =       40, E =      -127.6139810850
 Si         2.2553731885       -0.1978988428        1.9233309110
 Si        -1.2479961065        2.0532537156        3.7487715521