 Entering Gaussian System, Link 0=/CH/g16/g16
 Initial command:
 /CH/g16/l1.exe "/tmp/g16scr_2843662/Gau-2844106.inp" -scrdir="/tmp/g16scr_2843662/"
 Default is to use a total of  96 processors:
                               96 via shared-memory
                                1 via Linda
 Entering Link 1 = /CH/g16/l1.exe PID=   2844107.
  
 Copyright (c) 1988-2021, Gaussian, Inc.  All Rights Reserved.
  
 This is part of the Gaussian(R) 16 program.  It is based on
 the Gaussian(R) 09 system (copyright 2009, Gaussian, Inc.),
 the Gaussian(R) 03 system (copyright 2003, Gaussian, Inc.),
 the Gaussian(R) 98 system (copyright 1998, Gaussian, Inc.),
 the Gaussian(R) 94 system (copyright 1995, Gaussian, Inc.),
 the Gaussian 92(TM) system (copyright 1992, Gaussian, Inc.),
 the Gaussian 90(TM) system (copyright 1990, Gaussian, Inc.),
 the Gaussian 88(TM) system (copyright 1988, Gaussian, Inc.),
 the Gaussian 86(TM) system (copyright 1986, Carnegie Mellon
 University), and the Gaussian 82(TM) system (copyright 1983,
 Carnegie Mellon University). Gaussian is a federally registered
 trademark of Gaussian, Inc.
  
 This software contains proprietary and confidential information,
 including trade secrets, belonging to Gaussian, Inc.
  
 This software is provided under written license and may be
 used, copied, transmitted, or stored only in accord with that
 written license.
  
 The following legend is applicable only to US Government
 contracts under FAR:
  
                    RESTRICTED RIGHTS LEGEND
  
 Use, reproduction and disclosure by the US Government is
 subject to restrictions as set forth in subparagraphs (a)
 and (c) of the Commercial Computer Software - Restricted
 Rights clause in FAR 52.227-19.
  
 Gaussian, Inc.
 340 Quinnipiac St., Bldg. 40, Wallingford CT 06492
  
  
 ---------------------------------------------------------------
 Warning -- This program may not be used in any manner that
 competes with the business of Gaussian, Inc. or will provide
 assistance to any competitor of Gaussian, Inc.  The licensee
 of this program is prohibited from giving any competitor of
 Gaussian, Inc. access to this program.  By using this program,
 the user acknowledges that Gaussian, Inc. is engaged in the
 business of creating and licensing software in the field of
 computational chemistry and represents and warrants to the
 licensee that it is not a competitor of Gaussian, Inc. and that
 it will not use this program in any manner prohibited above.
 ---------------------------------------------------------------
  

 Cite this work as:
 Gaussian 16, Revision C.02,
 M. J. Frisch, G. W. Trucks, H. B. Schlegel, G. E. Scuseria, 
 M. A. Robb, J. R. Cheeseman, G. Scalmani, V. Barone, 
 G. A. Petersson, H. Nakatsuji, X. Li, M. Caricato, A. V. Marenich, 
 J. Bloino, B. G. Janesko, R. Gomperts, B. Mennucci, H. P. Hratchian, 
 J. V. Ortiz, A. F. Izmaylov, J. L. Sonnenberg, D. Williams-Young, 
 F. Ding, F. Lipparini, F. Egidi, J. Goings, B. Peng, A. Petrone, 
 T. Henderson, D. Ranasinghe, V. G. Zakrzewski, J. Gao, N. Rega, 
 G. Zheng, W. Liang, M. Hada, M. Ehara, K. Toyota, R. Fukuda, 
 J. Hasegawa, M. Ishida, T. Nakajima, Y. Honda, O. Kitao, H. Nakai, 
 T. Vreven, K. Throssell, J. A. Montgomery, Jr., J. E. Peralta, 
 F. Ogliaro, M. J. Bearpark, J. J. Heyd, E. N. Brothers, K. N. Kudin, 
 V. N. Staroverov, T. A. Keith, R. Kobayashi, J. Normand, 
 K. Raghavachari, A. P. Rendell, J. C. Burant, S. S. Iyengar, 
 J. Tomasi, M. Cossi, J. M. Millam, M. Klene, C. Adamo, R. Cammi, 
 J. W. Ochterski, R. L. Martin, K. Morokuma, O. Farkas, 
 J. B. Foresman, and D. J. Fox, Gaussian, Inc., Wallingford CT, 2019.
 
 ******************************************
 Gaussian 16:  ES64L-G16RevC.02  7-Dec-2021
                23-Jun-2026 
 ******************************************
 %chk=BH4_red.chk
 %nprocshared=8
 Will use up to    8 processors via shared memory.
 %mem=14GB
 ----------------------------------------------------------------------
 #p B3LYP/def2SVP EmpiricalDispersion=GD3BJ opt freq SCRF=(SMD,Solvent=
 Tetrahydrofuran) int=ultrafine
 ----------------------------------------------------------------------
 1/18=20,19=15,26=6,38=1/1,3;
 2/9=110,12=2,17=6,18=5,40=1/2;
 3/5=43,7=101,11=2,25=1,30=1,70=32201,71=1,72=20,74=-5,75=-5,124=41/1,2,3;
 4//1;
 5/5=2,38=5,53=20/2;
 6/7=2,8=2,9=2,10=2,28=1/1;
 7//1,2,3,16;
 1/18=20,19=15,26=6/3(2);
 2/9=110/2;
 99//99;
 2/9=110/2;
 3/5=43,7=101,11=2,25=1,30=1,70=32205,71=1,72=20,74=-5,75=-5,124=41/1,2,3;
 4/5=5,16=3,69=1/1;
 5/5=2,38=5,53=20/2;
 7//1,2,3,16;
 1/18=20,19=15,26=6/3(-5);
 2/9=110/2;
 6/7=2,8=2,9=2,10=2,19=2,28=1/1;
 99/9=1/99;
 Leave Link    1 at Tue Jun 23 22:00:41 2026, MaxMem=  1879048192 cpu:               0.6 elap:               0.0
 (Enter /CH/g16/l101.exe)
 -----------------------
 BH4_red D1 (T19 screen)
 -----------------------
 Symbolic Z-matrix:
 Charge = -2 Multiplicity = 2
 B                     0.        0.        0. 
 H                     0.7159    0.7159    0.7159 
 H                     0.7159   -0.7159   -0.7159 
 H                    -0.7159    0.7159   -0.7159 
 H                    -0.7159   -0.7159    0.7159 
 
 ITRead=  0  0  0  0  0
 MicOpt= -1 -1 -1 -1 -1
 NAtoms=      5 NQM=        5 NQMF=       0 NMMI=      0 NMMIF=      0
                NMic=       0 NMicF=      0.
                    Isotopes and Nuclear Properties:
 (Nuclear quadrupole moments (NQMom) in fm**2, nuclear magnetic moments (NMagM)
  in nuclear magnetons)

  Atom         1           2           3           4           5
 IAtWgt=          11           1           1           1           1
 AtmWgt=  11.0093053   1.0078250   1.0078250   1.0078250   1.0078250
 NucSpn=           3           1           1           1           1
 AtZEff=  -0.0000000  -0.0000000  -0.0000000  -0.0000000  -0.0000000
 NQMom=    4.0590000   0.0000000   0.0000000   0.0000000   0.0000000
 NMagM=    2.6886370   2.7928460   2.7928460   2.7928460   2.7928460
 AtZNuc=   5.0000000   1.0000000   1.0000000   1.0000000   1.0000000
 Leave Link  101 at Tue Jun 23 22:00:41 2026, MaxMem=  1879048192 cpu:               0.3 elap:               0.3
 (Enter /CH/g16/l103.exe)

 GradGradGradGradGradGradGradGradGradGradGradGradGradGradGradGradGradGrad
 Berny optimization.
 Initialization pass.
                           ----------------------------
                           !    Initial Parameters    !
                           ! (Angstroms and Degrees)  !
 --------------------------                            --------------------------
 ! Name  Definition              Value          Derivative Info.                !
 --------------------------------------------------------------------------------
 ! R1    R(1,2)                  1.24           estimate D2E/DX2                !
 ! R2    R(1,3)                  1.24           estimate D2E/DX2                !
 ! R3    R(1,4)                  1.24           estimate D2E/DX2                !
 ! R4    R(1,5)                  1.24           estimate D2E/DX2                !
 ! A1    A(2,1,3)              109.4712         estimate D2E/DX2                !
 ! A2    A(2,1,4)              109.4712         estimate D2E/DX2                !
 ! A3    A(2,1,5)              109.4712         estimate D2E/DX2                !
 ! A4    A(3,1,4)              109.4712         estimate D2E/DX2                !
 ! A5    A(3,1,5)              109.4712         estimate D2E/DX2                !
 ! A6    A(4,1,5)              109.4712         estimate D2E/DX2                !
 ! D1    D(2,1,4,3)            120.0            estimate D2E/DX2                !
 ! D2    D(2,1,5,3)           -120.0            estimate D2E/DX2                !
 ! D3    D(2,1,5,4)            120.0            estimate D2E/DX2                !
 ! D4    D(3,1,5,4)           -120.0            estimate D2E/DX2                !
 --------------------------------------------------------------------------------
 Trust Radius=3.00D-01 FncErr=5.00D-06 GrdErr=5.00D-06 EigMax=2.50D+02 EigMin=1.00D-04
 Number of steps in this run=     24 maximum allowed number of steps=    100.
 GradGradGradGradGradGradGradGradGradGradGradGradGradGradGradGradGradGrad

 Leave Link  103 at Tue Jun 23 22:00:42 2026, MaxMem=  1879048192 cpu:               0.0 elap:               0.0
 (Enter /CH/g16/l202.exe)
                          Input orientation:                          
 ---------------------------------------------------------------------
 Center     Atomic      Atomic             Coordinates (Angstroms)
 Number     Number       Type             X           Y           Z
 ---------------------------------------------------------------------
      1          5           0        0.000000    0.000000    0.000000
      2          1           0        0.715900    0.715900    0.715900
      3          1           0        0.715900   -0.715900   -0.715900
      4          1           0       -0.715900    0.715900   -0.715900
      5          1           0       -0.715900   -0.715900    0.715900
 ---------------------------------------------------------------------
                    Distance matrix (angstroms):
                    1          2          3          4          5
     1  B    0.000000
     2  H    1.239975   0.000000
     3  H    1.239975   2.024871   0.000000
     4  H    1.239975   2.024871   2.024871   0.000000
     5  H    1.239975   2.024871   2.024871   2.024871   0.000000
 Stoichiometry    BH4(2-,2)
 Framework group  TD[O(B),4C3(H)]
 Deg. of freedom     1
 Full point group                 TD      NOp  24
 Largest Abelian subgroup         D2      NOp   4
 Largest concise Abelian subgroup D2      NOp   4
                         Standard orientation:                         
 ---------------------------------------------------------------------
 Center     Atomic      Atomic             Coordinates (Angstroms)
 Number     Number       Type             X           Y           Z
 ---------------------------------------------------------------------
      1          5           0        0.000000    0.000000    0.000000
      2          1           0        0.715900    0.715900    0.715900
      3          1           0       -0.715900   -0.715900    0.715900
      4          1           0        0.715900   -0.715900   -0.715900
      5          1           0       -0.715900    0.715900   -0.715900
 ---------------------------------------------------------------------
 Rotational constants (GHZ):         122.3030661         122.3030661         122.3030661
 Leave Link  202 at Tue Jun 23 22:00:42 2026, MaxMem=  1879048192 cpu:               0.0 elap:               0.0
 (Enter /CH/g16/l301.exe)
 Standard basis: def2SVP (5D, 7F)
 Ernie: Thresh=  0.10000D-02 Tol=  0.10000D-05 Strict=F.
 There are    11 symmetry adapted cartesian basis functions of A   symmetry.
 There are     8 symmetry adapted cartesian basis functions of B1  symmetry.
 There are     8 symmetry adapted cartesian basis functions of B2  symmetry.
 There are     8 symmetry adapted cartesian basis functions of B3  symmetry.
 There are    10 symmetry adapted basis functions of A   symmetry.
 There are     8 symmetry adapted basis functions of B1  symmetry.
 There are     8 symmetry adapted basis functions of B2  symmetry.
 There are     8 symmetry adapted basis functions of B3  symmetry.
    34 basis functions,    53 primitive gaussians,    35 cartesian basis functions
     6 alpha electrons        5 beta electrons
       nuclear repulsion energy        10.1033195786 Hartrees.
 IExCor=  402 DFT=T Ex+Corr=B3LYP ExCW=0 ScaHFX=  0.200000
 ScaDFX=  0.800000  0.720000  1.000000  0.810000 ScalE2=  1.000000  1.000000
 IRadAn=      5 IRanWt=     -1 IRanGd=            0 ICorTp=0 IEmpDi=141
 NAtoms=    5 NActive=    5 NUniq=    2 SFac= 4.00D+00 NAtFMM=   60 NAOKFM=F Big=F
 Integral buffers will be    131072 words long.
 Raffenetti 2 integral format.
 Two-electron integral symmetry is turned on.
 R6Disp:  Grimme-D3(BJ) Dispersion energy=       -0.0020996498 Hartrees.
 Nuclear repulsion after empirical dispersion term =       10.1012199288 Hartrees.
 ------------------------------------------------------------------------------
 Polarizable Continuum Model (PCM)
 =================================
 Model                : PCM.
 Atomic radii         : SMD-Coulomb.
 Polarization charges : Total charges.
 Charge compensation  : None.
 Solution method      : On-the-fly selection.
 Cavity type          : VdW (van der Waals Surface) (Alpha=1.000).
 Cavity algorithm     : GePol (No added spheres)
                        Default sphere list used, NSphG=    5.
                        Lebedev-Laikov grids with approx.  5.0 points / Ang**2.
                        Smoothing algorithm: York/Karplus (Gamma=1.0000).
                        Polarization charges: spherical gaussians, with
                                              point-specific exponents (IZeta= 3).
                        Self-potential: point-specific (ISelfS= 7).
                        Self-field    : sphere-specific E.n sum rule (ISelfD= 2).
 1st derivatives      : Analytical E(r).r(x)/FMM algorithm (CHGder, D1EAlg=3).
                        Cavity 1st derivative terms included.
 Solvent              : TetraHydroFuran, Eps=   7.425700 Eps(inf)=   1.974025
 ------------------------------------------------------------------------------
 Spheres list:
 ISph  on   Nord     Re0    Alpha      Xe            Ye            Ze
    1   B      1    1.8000  1.000      0.000000      0.000000      0.000000
    2   H      2    1.2000  1.000      0.715900      0.715900      0.715900
    3   H      3    1.2000  1.000     -0.715900     -0.715900      0.715900
    4   H      4    1.2000  1.000      0.715900     -0.715900     -0.715900
    5   H      5    1.2000  1.000     -0.715900      0.715900     -0.715900
 ------------------------------------------------------------------------------
 GePol: Number of generator spheres                  =       5
 GePol: Total number of spheres                      =       5
 GePol: Number of exposed spheres                    =       5 (100.00%)
 GePol: Number of points                             =     434
 GePol: Average weight of points                     =       0.12
 GePol: Minimum weight of points                     =   0.14D-02
 GePol: Maximum weight of points                     =    0.17992
 GePol: Number of points with low weight             =       0
 GePol: Fraction of low-weight points (<1% of avg)   =       0.00%
 GePol: Cavity surface area                          =     53.629 Ang**2
 GePol: Cavity volume                                =     32.940 Ang**3
 ------------------------------------------------------------------------------
 Atomic radii for non-electrostatic terms: SMD-CDS.
 ------------------------------------------------------------------------------
 PCM non-electrostatic energy =         0.0016849289 Hartrees.
 Nuclear repulsion after PCM non-electrostatic terms =       10.1029048578 Hartrees.
 Leave Link  301 at Tue Jun 23 22:00:42 2026, MaxMem=  1879048192 cpu:               0.0 elap:               0.0
 (Enter /CH/g16/l302.exe)
 NPDir=0 NMtPBC=     1 NCelOv=     1 NCel=       1 NClECP=     1 NCelD=      1
         NCelK=      1 NCelE2=     1 NClLst=     1 CellRange=     0.0.
 One-electron integrals computed using PRISM.
 One-electron integral symmetry used in STVInt
  24 Symmetry operations used in ECPInt.
 ECPInt:  NShTT=     171 NPrTT=     553 LenC2=     172 LenP2D=     539.
 LDataN:  DoStor=T MaxTD1= 4 Len=   56
 NBasis=    34 RedAO= T EigKep=  5.62D-03  NBF=    10     8     8     8
 NBsUse=    34 1.00D-06 EigRej= -1.00D+00 NBFU=    10     8     8     8
 Precomputing XC quadrature grid using
 IXCGrd= 4 IRadAn=           5 IRanWt=          -1 IRanGd=           0 AccXCQ= 0.00D+00.
 Generated NRdTot=       0 NPtTot=           0 NUsed=           0 NTot=          32
 NSgBfM=    35    35    35    35    35 MxSgAt=     5 MxSgA2=     5.
 Leave Link  302 at Tue Jun 23 22:00:42 2026, MaxMem=  1879048192 cpu:               0.3 elap:               0.1
 (Enter /CH/g16/l303.exe)
 DipDrv:  MaxL=1.
 Leave Link  303 at Tue Jun 23 22:00:42 2026, MaxMem=  1879048192 cpu:               0.0 elap:               0.0
 (Enter /CH/g16/l401.exe)
 ExpMin= 8.36D-02 ExpMax= 8.39D+02 ExpMxC= 1.26D+02 IAcc=3 IRadAn=         5 AccDes= 0.00D+00
 Harris functional with IExCor=  402 and IRadAn=       5 diagonalized for initial guess.
 HarFok:  IExCor=  402 AccDes= 0.00D+00 IRadAn=         5 IDoV= 1 UseB2=F ITyADJ=14
 ICtDFT=  3500011 ScaDFX=  1.000000  1.000000  1.000000  1.000000
 FoFCou: FMM=F IPFlag=           0 FMFlag=      100000 FMFlg1=           0
         NFxFlg=           0 DoJE=T BraDBF=F KetDBF=T FulRan=T
         wScrn=  0.000000 ICntrl=       500 IOpCl=  0 I1Cent=   200000004 NGrid=           0
         NMat0=    1 NMatS0=      1 NMatT0=    0 NMatD0=    1 NMtDS0=    0 NMtDT0=    0
 Petite list used in FoFCou.
 Harris En= -27.4319768662814    
 JPrj=0 DoOrth=F DoCkMO=F.
 Initial guess orbital symmetries:
 Alpha Orbitals:
       Occupied  (A1) (A1) (T2) (T2) (T2) (T2)
       Virtual   (T2) (T2) (A1) (T2) (T2) (T2) (A1) (T2) (T2) (T2)
                 (A1) (E) (E) (T2) (T2) (T2) (T1) (T1) (T1) (T2)
                 (T2) (T2) (E) (E) (A1) (T2) (T2) (T2)
 Beta  Orbitals:
       Occupied  (A1) (A1) (T2) (T2) (T2)
       Virtual   (T2) (T2) (T2) (A1) (T2) (T2) (T2) (A1) (T2) (T2)
                 (T2) (A1) (E) (E) (T2) (T2) (T2) (T1) (T1) (T1)
                 (T2) (T2) (T2) (E) (E) (A1) (T2) (T2) (T2)
 Initial guess <Sx>= 0.0000 <Sy>= 0.0000 <Sz>= 0.5000 <S**2>= 0.7500 S= 0.5000
 Leave Link  401 at Tue Jun 23 22:00:42 2026, MaxMem=  1879048192 cpu:               0.4 elap:               0.1
 (Enter /CH/g16/l502.exe)
 Keep R1 and R2 ints in memory in symmetry-blocked form, NReq=7092481.
 FoFCou: FMM=F IPFlag=           0 FMFlag=           0 FMFlg1=           0
         NFxFlg=           0 DoJE=F BraDBF=F KetDBF=F FulRan=T
         wScrn=  0.000000 ICntrl=       600 IOpCl=  0 I1Cent=           0 NGrid=           0
         NMat0=    1 NMatS0=    595 NMatT0=    0 NMatD0=    1 NMtDS0=    0 NMtDT0=    0
 Petite list used in FoFCou.
 UHF open shell SCF:
 Using DIIS extrapolation, IDIIS=  1040.
 NGot=  1879048192 LenX=  1878952859 LenY=  1878951193
 Requested convergence on RMS density matrix=1.00D-08 within 128 cycles.
 Requested convergence on MAX density matrix=1.00D-06.
 Requested convergence on             energy=1.00D-06.
 No special actions if energy rises.

 Cycle   1  Pass 1  IDiag  1:
 Density matrix breaks symmetry, PCut= 1.00D-04
 Density has only Abelian symmetry.
 Inv3:  Mode=1 IEnd=      565068.
 Iteration    1 A*A^-1 deviation from unit magnitude is 3.66D-15 for    189.
 Iteration    1 A*A^-1 deviation from orthogonality  is 2.11D-15 for    383    194.
 Iteration    1 A^-1*A deviation from unit magnitude is 3.22D-15 for    193.
 Iteration    1 A^-1*A deviation from orthogonality  is 1.69D-15 for    332    213.
 E= -26.9643499640932    
 DIIS: error= 6.27D-02 at cycle   1 NSaved=   1.
 NSaved= 1 IEnMin= 1 EnMin= -26.9643499640932     IErMin= 1 ErrMin= 6.27D-02
 ErrMax= 6.27D-02  0.00D+00 EMaxC= 1.00D-01 BMatC= 4.69D-01 BMatP= 4.69D-01
 IDIUse=3 WtCom= 3.73D-01 WtEn= 6.27D-01
 Coeff-Com:  0.100D+01
 Coeff-En:   0.100D+01
 Coeff:      0.100D+01
 Gap=     0.064 Goal=   None    Shift=    0.000
 Gap=     0.347 Goal=   None    Shift=    0.000
 GapD=    0.064 DampG=0.500 DampE=0.500 DampFc=0.2500 IDamp=-1.
 Damping current iteration by 2.50D-01
 RMSDP=1.10D-01 MaxDP=2.33D+00              OVMax= 3.56D-01

 Cycle   2  Pass 1  IDiag  1:
 Density matrix breaks symmetry, PCut= 1.00D-04
 Density has only Abelian symmetry.
 E= -27.0438780843340     Delta-E=       -0.079528120241 Rises=F Damp=T
 DIIS: error= 3.29D-02 at cycle   2 NSaved=   2.
 NSaved= 2 IEnMin= 2 EnMin= -27.0438780843340     IErMin= 2 ErrMin= 3.29D-02
 ErrMax= 3.29D-02  0.00D+00 EMaxC= 1.00D-01 BMatC= 1.22D-01 BMatP= 4.69D-01
 IDIUse=3 WtCom= 6.71D-01 WtEn= 3.29D-01
 Coeff-Com: -0.981D+00 0.198D+01
 Coeff-En:   0.000D+00 0.100D+01
 Coeff:     -0.658D+00 0.166D+01
 Gap=     0.057 Goal=   None    Shift=    0.000
 Gap=     0.383 Goal=   None    Shift=    0.000
 RMSDP=5.85D-02 MaxDP=1.22D+00 DE=-7.95D-02 OVMax= 1.18D-01

 Cycle   3  Pass 1  IDiag  1:
 Density matrix breaks symmetry, PCut= 1.00D-04
 Density has only Abelian symmetry.
 E= -27.1740517444290     Delta-E=       -0.130173660095 Rises=F Damp=F
 DIIS: error= 1.30D-02 at cycle   3 NSaved=   3.
 NSaved= 3 IEnMin= 3 EnMin= -27.1740517444290     IErMin= 3 ErrMin= 1.30D-02
 ErrMax= 1.30D-02  0.00D+00 EMaxC= 1.00D-01 BMatC= 1.74D-02 BMatP= 1.22D-01
 IDIUse=3 WtCom= 8.70D-01 WtEn= 1.30D-01
 Coeff-Com:  0.449D+00-0.502D+00 0.105D+01
 Coeff-En:   0.000D+00 0.000D+00 0.100D+01
 Coeff:      0.391D+00-0.437D+00 0.105D+01
 Gap=     0.058 Goal=   None    Shift=    0.000
 Gap=     0.408 Goal=   None    Shift=    0.000
 RMSDP=5.61D-03 MaxDP=9.60D-02 DE=-1.30D-01 OVMax= 3.39D-02

 Cycle   4  Pass 1  IDiag  1:
 Density matrix breaks symmetry, PCut= 1.00D-04
 Density has only Abelian symmetry.
 E= -27.1809291235433     Delta-E=       -0.006877379114 Rises=F Damp=F
 DIIS: error= 1.68D-03 at cycle   4 NSaved=   4.
 NSaved= 4 IEnMin= 4 EnMin= -27.1809291235433     IErMin= 4 ErrMin= 1.68D-03
 ErrMax= 1.68D-03  0.00D+00 EMaxC= 1.00D-01 BMatC= 3.04D-04 BMatP= 1.74D-02
 IDIUse=3 WtCom= 9.83D-01 WtEn= 1.68D-02
 Coeff-Com: -0.785D-01 0.111D+00 0.188D-02 0.966D+00
 Coeff-En:   0.000D+00 0.000D+00 0.000D+00 0.100D+01
 Coeff:     -0.771D-01 0.109D+00 0.185D-02 0.966D+00
 Gap=     0.058 Goal=   None    Shift=    0.000
 Gap=     0.407 Goal=   None    Shift=    0.000
 RMSDP=1.50D-03 MaxDP=4.30D-02 DE=-6.88D-03 OVMax= 8.61D-03

 Cycle   5  Pass 1  IDiag  1:
 Density matrix breaks symmetry, PCut= 1.00D-04
 Density has only Abelian symmetry.
 E= -27.1810588533761     Delta-E=       -0.000129729833 Rises=F Damp=F
 DIIS: error= 1.69D-04 at cycle   5 NSaved=   5.
 NSaved= 5 IEnMin= 5 EnMin= -27.1810588533761     IErMin= 5 ErrMin= 1.69D-04
 ErrMax= 1.69D-04  0.00D+00 EMaxC= 1.00D-01 BMatC= 2.27D-06 BMatP= 3.04D-04
 IDIUse=3 WtCom= 9.98D-01 WtEn= 1.69D-03
 Coeff-Com:  0.241D-01-0.407D-01-0.220D-01-0.283D+00 0.132D+01
 Coeff-En:   0.000D+00 0.000D+00 0.000D+00 0.000D+00 0.100D+01
 Coeff:      0.240D-01-0.406D-01-0.220D-01-0.282D+00 0.132D+01
 Gap=     0.058 Goal=   None    Shift=    0.000
 Gap=     0.407 Goal=   None    Shift=    0.000
 RMSDP=4.87D-04 MaxDP=1.39D-02 DE=-1.30D-04 OVMax= 3.56D-03

 Cycle   6  Pass 1  IDiag  1:
 Density matrix breaks symmetry, PCut= 1.00D-04
 Density has only Abelian symmetry.
 E= -27.1810621869785     Delta-E=       -0.000003333602 Rises=F Damp=F
 DIIS: error= 2.94D-05 at cycle   6 NSaved=   6.
 NSaved= 6 IEnMin= 6 EnMin= -27.1810621869785     IErMin= 6 ErrMin= 2.94D-05
 ErrMax= 2.94D-05  0.00D+00 EMaxC= 1.00D-01 BMatC= 9.21D-08 BMatP= 2.27D-06
 IDIUse=1 WtCom= 1.00D+00 WtEn= 0.00D+00
 Coeff-Com: -0.222D-02 0.498D-02 0.781D-03-0.100D-01-0.692D-01 0.108D+01
 Coeff:     -0.222D-02 0.498D-02 0.781D-03-0.100D-01-0.692D-01 0.108D+01
 Gap=     0.058 Goal=   None    Shift=    0.000
 Gap=     0.407 Goal=   None    Shift=    0.000
 RMSDP=6.69D-05 MaxDP=6.69D-04 DE=-3.33D-06 OVMax= 2.83D-04

 Cycle   7  Pass 1  IDiag  1:
 Density matrix breaks symmetry, PCut= 1.00D-04
 Density has only Abelian symmetry.
 E= -27.1810622451384     Delta-E=       -0.000000058160 Rises=F Damp=F
 DIIS: error= 8.86D-06 at cycle   7 NSaved=   7.
 NSaved= 7 IEnMin= 7 EnMin= -27.1810622451384     IErMin= 7 ErrMin= 8.86D-06
 ErrMax= 8.86D-06  0.00D+00 EMaxC= 1.00D-01 BMatC= 4.65D-09 BMatP= 9.21D-08
 IDIUse=1 WtCom= 1.00D+00 WtEn= 0.00D+00
 Coeff-Com:  0.186D-03-0.587D-03 0.777D-03 0.123D-01-0.385D-01-0.236D+00
 Coeff-Com:  0.126D+01
 Coeff:      0.186D-03-0.587D-03 0.777D-03 0.123D-01-0.385D-01-0.236D+00
 Coeff:      0.126D+01
 Gap=     0.058 Goal=   None    Shift=    0.000
 Gap=     0.407 Goal=   None    Shift=    0.000
 RMSDP=1.07D-05 MaxDP=2.27D-04 DE=-5.82D-08 OVMax= 7.97D-05

 Cycle   8  Pass 1  IDiag  1:
 Density matrix breaks symmetry, PCut= 1.00D-04
 Density has only Abelian symmetry.
 E= -27.1810622486379     Delta-E=       -0.000000003500 Rises=F Damp=F
 DIIS: error= 1.38D-06 at cycle   8 NSaved=   8.
 NSaved= 8 IEnMin= 8 EnMin= -27.1810622486379     IErMin= 8 ErrMin= 1.38D-06
 ErrMax= 1.38D-06  0.00D+00 EMaxC= 1.00D-01 BMatC= 1.36D-10 BMatP= 4.65D-09
 IDIUse=1 WtCom= 1.00D+00 WtEn= 0.00D+00
 Coeff-Com: -0.286D-04 0.808D-04-0.240D-03-0.308D-02 0.144D-01 0.261D-01
 Coeff-Com: -0.321D+00 0.128D+01
 Coeff:     -0.286D-04 0.808D-04-0.240D-03-0.308D-02 0.144D-01 0.261D-01
 Coeff:     -0.321D+00 0.128D+01
 Gap=     0.058 Goal=   None    Shift=    0.000
 Gap=     0.407 Goal=   None    Shift=    0.000
 RMSDP=8.53D-07 MaxDP=1.03D-05 DE=-3.50D-09 OVMax= 7.02D-06

 Cycle   9  Pass 1  IDiag  1:
 Density matrix breaks symmetry, PCut= 1.00D-04
 Density has only Abelian symmetry.
 E= -27.1810622487302     Delta-E=       -0.000000000092 Rises=F Damp=F
 DIIS: error= 1.75D-07 at cycle   9 NSaved=   9.
 NSaved= 9 IEnMin= 9 EnMin= -27.1810622487302     IErMin= 9 ErrMin= 1.75D-07
 ErrMax= 1.75D-07  0.00D+00 EMaxC= 1.00D-01 BMatC= 1.65D-12 BMatP= 1.36D-10
 IDIUse=1 WtCom= 1.00D+00 WtEn= 0.00D+00
 Coeff-Com:  0.397D-05-0.787D-05 0.230D-04 0.290D-03-0.169D-02-0.380D-04
 Coeff-Com:  0.241D-01-0.193D+00 0.117D+01
 Coeff:      0.397D-05-0.787D-05 0.230D-04 0.290D-03-0.169D-02-0.380D-04
 Coeff:      0.241D-01-0.193D+00 0.117D+01
 Gap=     0.058 Goal=   None    Shift=    0.000
 Gap=     0.407 Goal=   None    Shift=    0.000
 RMSDP=9.78D-08 MaxDP=1.13D-06 DE=-9.22D-11 OVMax= 8.31D-07

 Cycle  10  Pass 1  IDiag  1:
 Density matrix breaks symmetry, PCut= 1.00D-04
 Density has only Abelian symmetry.
 E= -27.1810622487314     Delta-E=       -0.000000000001 Rises=F Damp=F
 DIIS: error= 2.17D-08 at cycle  10 NSaved=  10.
 NSaved=10 IEnMin=10 EnMin= -27.1810622487314     IErMin=10 ErrMin= 2.17D-08
 ErrMax= 2.17D-08  0.00D+00 EMaxC= 1.00D-01 BMatC= 2.58D-14 BMatP= 1.65D-12
 IDIUse=1 WtCom= 1.00D+00 WtEn= 0.00D+00
 Coeff-Com:  0.422D-06-0.104D-05 0.111D-06-0.488D-05 0.976D-04-0.616D-03
 Coeff-Com:  0.125D-02 0.131D-01-0.213D+00 0.120D+01
 Coeff:      0.422D-06-0.104D-05 0.111D-06-0.488D-05 0.976D-04-0.616D-03
 Coeff:      0.125D-02 0.131D-01-0.213D+00 0.120D+01
 Gap=     0.058 Goal=   None    Shift=    0.000
 Gap=     0.407 Goal=   None    Shift=    0.000
 RMSDP=2.25D-08 MaxDP=5.62D-07 DE=-1.29D-12 OVMax= 1.67D-07

 Cycle  11  Pass 1  IDiag  1:
 Density matrix breaks symmetry, PCut= 1.00D-04
 Density has only Abelian symmetry.
 E= -27.1810622487315     Delta-E=       -0.000000000000 Rises=F Damp=F
 DIIS: error= 3.53D-09 at cycle  11 NSaved=  11.
 NSaved=11 IEnMin=11 EnMin= -27.1810622487315     IErMin=11 ErrMin= 3.53D-09
 ErrMax= 3.53D-09  0.00D+00 EMaxC= 1.00D-01 BMatC= 6.83D-16 BMatP= 2.58D-14
 IDIUse=1 WtCom= 1.00D+00 WtEn= 0.00D+00
 Coeff-Com:  0.108D-06-0.152D-06-0.519D-06-0.576D-05 0.211D-04 0.568D-04
 Coeff-Com: -0.483D-03 0.964D-03 0.178D-01-0.228D+00 0.121D+01
 Coeff:      0.108D-06-0.152D-06-0.519D-06-0.576D-05 0.211D-04 0.568D-04
 Coeff:     -0.483D-03 0.964D-03 0.178D-01-0.228D+00 0.121D+01
 Gap=     0.058 Goal=   None    Shift=    0.000
 Gap=     0.407 Goal=   None    Shift=    0.000
 RMSDP=4.30D-09 MaxDP=7.37D-08 DE=-3.55D-14 OVMax= 3.09D-08

 Density matrix breaks symmetry, PCut= 1.00D-04
 Density has only Abelian symmetry.
 Error on total polarization charges =  0.14073
 SCF Done:  E(UB3LYP) =  -27.1810622487     A.U. after   11 cycles
            NFock= 11  Conv=0.43D-08     -V/T= 2.0045
 <Sx>= 0.0000 <Sy>= 0.0000 <Sz>= 0.5000 <S**2>= 0.7508 S= 0.5004
 <L.S>=  0.00000000000    
 KE= 2.705986476604D+01 PE=-8.689235407658D+01 EE= 2.254852220405D+01
 SMD-CDS (non-electrostatic) energy       (kcal/mol) =       1.06
 (included in total energy above)
 Annihilation of the first spin contaminant:
 S**2 before annihilation     0.7508,   after     0.7500
 Leave Link  502 at Tue Jun 23 22:00:42 2026, MaxMem=  1879048192 cpu:               3.5 elap:               0.5
 (Enter /CH/g16/l601.exe)
 Copying SCF densities to generalized density rwf, IOpCl= 1 IROHF=0.
 SCF density gives NOpUse=  4 NOpAll= 24.
 Marking SCF density as not fully symmetric.

 **********************************************************************

            Population analysis using the SCF Density.

 **********************************************************************

 Orbital symmetries:
 Alpha Orbitals:
       Occupied  (A1) (A1) (T2) (T2) (T2) (?A)
       Virtual   (?A) (?A) (A1) (A1) (?A) (?A) (?A) (T2) (T2) (T2)
                 (T2) (T2) (T2) (?B) (?B) (?B) (?B) (?B) (?B) (T2)
                 (T2) (T2) (T2) (T2) (T2) (T2) (T2) (T2)
 Beta  Orbitals:
       Occupied  (A1) (A1) (T2) (T2) (T2)
       Virtual   (T2) (T2) (T2) (A1) (T2) (T2) (T2) (A1) (T2) (T2)
                 (T2) (T2) (T2) (T2) (?A) (?A) (?A) (?A) (?A) (?A)
                 (T2) (T2) (T2) (E) (E) (A1) (T2) (T2) (T2)
 Unable to determine electronic state:  an orbital has unidentified symmetry.
 Alpha  occ. eigenvalues --   -6.59950  -0.39962  -0.21112  -0.21112  -0.21046
 Alpha  occ. eigenvalues --    0.13690
 Alpha virt. eigenvalues --    0.19452   0.19452   0.24643   0.34879   0.35194
 Alpha virt. eigenvalues --    0.35194   0.35210   0.71980   0.73020   0.73020
 Alpha virt. eigenvalues --    0.87964   1.01229   1.02081   1.52195   1.52195
 Alpha virt. eigenvalues --    1.52252   1.57536   1.57536   1.57927   2.00741
 Alpha virt. eigenvalues --    2.00868   2.00868   2.26527   2.27118   2.50757
 Alpha virt. eigenvalues --    2.59971   2.60056   2.60056
  Beta  occ. eigenvalues --   -6.59921  -0.39124  -0.20208  -0.20125  -0.20125
  Beta virt. eigenvalues --    0.20578   0.20578   0.20747   0.25635   0.36057
  Beta virt. eigenvalues --    0.36068   0.36068   0.37229   0.73532   0.73532
  Beta virt. eigenvalues --    0.73721   0.88866   1.02060   1.02330   1.52931
  Beta virt. eigenvalues --    1.52947   1.52947   1.58239   1.58442   1.58442
  Beta virt. eigenvalues --    2.01724   2.01724   2.01906   2.27417   2.27726
  Beta virt. eigenvalues --    2.51471   2.60751   2.60751   2.60768
          Condensed to atoms (all electrons):
               1          2          3          4          5
     1  B    8.405308  -0.571544  -0.571544  -0.571544  -0.571544
     2  H   -0.571544   2.597425  -0.732670   0.659676  -0.732670
     3  H   -0.571544  -0.732670   2.597425  -0.732670   0.659676
     4  H   -0.571544   0.659676  -0.732670   2.597425  -0.732670
     5  H   -0.571544  -0.732670   0.659676  -0.732670   2.597425
          Atomic-Atomic Spin Densities.
               1          2          3          4          5
     1  B    4.666677  -0.985706  -0.985706  -0.985706  -0.985706
     2  H   -0.985706   1.755815  -0.698721   0.696370  -0.698721
     3  H   -0.985706  -0.698721   1.755815  -0.698721   0.696370
     4  H   -0.985706   0.696370  -0.698721   1.755815  -0.698721
     5  H   -0.985706  -0.698721   0.696370  -0.698721   1.755815
 Mulliken charges and spin densities:
               1          2
     1  B   -1.119131   0.723854
     2  H   -0.220217   0.069037
     3  H   -0.220217   0.069037
     4  H   -0.220217   0.069037
     5  H   -0.220217   0.069037
 Sum of Mulliken charges =  -2.00000   1.00000
 Mulliken charges and spin densities with hydrogens summed into heavy atoms:
               1          2
     1  B   -2.000000   1.000000
 Electronic spatial extent (au):  <R**2>=             70.5494
 Charge=             -2.0000 electrons
 Dipole moment (field-independent basis, Debye):
    X=             -0.0000    Y=              0.0000    Z=              0.0000  Tot=              0.0000
 Quadrupole moment (field-independent basis, Debye-Ang):
   XX=            -20.2580   YY=            -22.5465   ZZ=            -22.5465
   XY=              0.0000   XZ=             -0.0000   YZ=             -0.0000
 Traceless Quadrupole moment (field-independent basis, Debye-Ang):
   XX=              1.5257   YY=             -0.7628   ZZ=             -0.7628
   XY=              0.0000   XZ=             -0.0000   YZ=             -0.0000
 Octapole moment (field-independent basis, Debye-Ang**2):
  XXX=              0.0000  YYY=              0.0000  ZZZ=              0.0000  XYY=              0.0000
  XXY=             -0.0000  XXZ=              0.0000  XZZ=             -0.0000  YZZ=              0.0000
  YYZ=              0.0000  XYZ=             -1.9232
 Hexadecapole moment (field-independent basis, Debye-Ang**3):
 XXXX=            -55.1111 YYYY=            -61.5270 ZZZZ=            -61.5270 XXXY=              0.0000
 XXXZ=             -0.0000 YYYX=             -0.0000 YYYZ=             -0.0000 ZZZX=             -0.0000
 ZZZY=              0.0000 XXYY=            -19.9893 XXZZ=            -19.9893 YYZZ=            -27.1366
 XXYZ=              0.0000 YYXZ=             -0.0000 ZZXY=              0.0000
 N-N= 1.010290485775D+01 E-N=-8.689235403860D+01  KE= 2.705986476604D+01
 Symmetry A    KE= 2.301373598718D+01
 Symmetry B1   KE= 1.201478883155D+00
 Symmetry B2   KE= 1.201478883155D+00
 Symmetry B3   KE= 1.643171012557D+00
 Symmetry A    SP= 6.724843280817D-15
 Symmetry B1   SP=-1.082527688546D-15
 Symmetry B2   SP=-2.900150465779D-15
 Symmetry B3   SP= 1.000000000000D+00
                          Isotropic Fermi Contact Couplings
        Atom                 a.u.       MegaHertz       Gauss      10(-4) cm-1
     1  B(11)             -0.01932     -27.71333      -9.88881      -9.24417
     2  H(1)               0.00445      19.88991       7.09721       6.63456
     3  H(1)               0.00445      19.88991       7.09721       6.63456
     4  H(1)               0.00445      19.88991       7.09721       6.63456
     5  H(1)               0.00445      19.88991       7.09721       6.63456
 --------------------------------------------------------
       Center         ----  Spin Dipole Couplings  ----
                      3XX-RR        3YY-RR        3ZZ-RR
 --------------------------------------------------------
     1   Atom        0.058211     -0.029105     -0.029105
     2   Atom       -0.002195      0.001097      0.001097
     3   Atom       -0.002195      0.001097      0.001097
     4   Atom       -0.002195      0.001097      0.001097
     5   Atom       -0.002195      0.001097      0.001097
 --------------------------------------------------------
                        XY            XZ            YZ
 --------------------------------------------------------
     1   Atom       -0.000000      0.000000      0.000000
     2   Atom       -0.008337     -0.008337      0.013761
     3   Atom       -0.008337      0.008337     -0.013761
     4   Atom        0.008337      0.008337      0.013761
     5   Atom        0.008337     -0.008337     -0.013761
 --------------------------------------------------------


 ---------------------------------------------------------------------------------
              Anisotropic Spin Dipole Couplings in Principal Axis System
 ---------------------------------------------------------------------------------

       Atom             a.u.   MegaHertz   Gauss  10(-4) cm-1        Axes

              Baa    -0.0291    -4.983    -1.778    -1.662 -0.0000 -0.3280  0.9447
     1 B(11)  Bbb    -0.0291    -4.983    -1.778    -1.662  0.0000  0.9447  0.3280
              Bcc     0.0582     9.967     3.556     3.324  1.0000 -0.0000  0.0000
 
              Baa    -0.0127    -6.757    -2.411    -2.254 -0.0000  0.7071 -0.7071
     2 H(1)   Bbb    -0.0082    -4.385    -1.565    -1.463  0.8905  0.3217  0.3217
              Bcc     0.0209    11.142     3.976     3.716 -0.4550  0.6297  0.6297
 
              Baa    -0.0127    -6.757    -2.411    -2.254 -0.0000  0.7071  0.7071
     3 H(1)   Bbb    -0.0082    -4.385    -1.565    -1.463  0.8905  0.3217 -0.3217
              Bcc     0.0209    11.142     3.976     3.716 -0.4550  0.6297 -0.6297
 
              Baa    -0.0127    -6.757    -2.411    -2.254  0.0000  0.7071 -0.7071
     4 H(1)   Bbb    -0.0082    -4.385    -1.565    -1.463  0.8905 -0.3217 -0.3217
              Bcc     0.0209    11.142     3.976     3.716  0.4550  0.6297  0.6297
 
              Baa    -0.0127    -6.757    -2.411    -2.254  0.0000  0.7071  0.7071
     5 H(1)   Bbb    -0.0082    -4.385    -1.565    -1.463  0.8905 -0.3217  0.3217
              Bcc     0.0209    11.142     3.976     3.716  0.4550  0.6297 -0.6297
 

 ---------------------------------------------------------------------------------

 No NMR shielding tensors so no spin-rotation constants.
 Leave Link  601 at Tue Jun 23 22:00:42 2026, MaxMem=  1879048192 cpu:               0.5 elap:               0.1
 (Enter /CH/g16/l701.exe)
 ... and contract with generalized density number  0.
 Compute integral first derivatives.
 Density matrix has only Abelian symmetry.
 R6Disp: Adding Grimme-D3(BJ) dispersion energy 1st derivatives to the gradient.
   4 Symmetry operations used in ECPInt.
 ECPInt:  NShTT=     171 NPrTT=     553 LenC2=     172 LenP2D=     539.
 LDataN:  DoStor=T MaxTD1= 5 Len=  102
 D1PCM: PCM CHGder 1st derivatives, ID1Alg=3 FixD1E=F DoIter=F DoCFld=F I1PDM=0.
 GePol: Maximum number of non-zero 1st derivatives   =     274
 Leave Link  701 at Tue Jun 23 22:00:43 2026, MaxMem=  1879048192 cpu:               1.1 elap:               0.2
 (Enter /CH/g16/l702.exe)
 L702 exits ... SP integral derivatives will be done elsewhere.
 Leave Link  702 at Tue Jun 23 22:00:43 2026, MaxMem=  1879048192 cpu:               0.0 elap:               0.0
 (Enter /CH/g16/l703.exe)
 Integral derivatives from FoFJK, PRISM(SPDF).
 Compute integral first derivatives, UseDBF=F ICtDFT=           0.
 Density matrix has only Abelian symmetry.
 Calling FoFJK, ICntrl=      2127 FMM=F ISym2X=1 I1Cent= 0 IOpClX= 1 NMat=1 NMatS=1 NMatT=0.
 FoFJK:  IHMeth= 1 ICntrl=    2127 DoSepK=F KAlg= 0 I1Cent=           0 FoldK=F
 IRaf=         0 NMat=       1 IRICut=       1 DoRegI=T DoRafI=F ISym2E= 1 IDoP0=0 IntGTp=1.
 FoFCou: FMM=F IPFlag=           0 FMFlag=      100000 FMFlg1=         800
         NFxFlg=           0 DoJE=F BraDBF=F KetDBF=F FulRan=T
         wScrn=  0.000000 ICntrl=      2127 IOpCl=  1 I1Cent=           0 NGrid=           0
         NMat0=    1 NMatS0=      1 NMatT0=    0 NMatD0=    1 NMtDS0=    0 NMtDT0=    0
 Petite list used in FoFCou.
 Leave Link  703 at Tue Jun 23 22:00:43 2026, MaxMem=  1879048192 cpu:               0.4 elap:               0.1
 (Enter /CH/g16/l716.exe)
 Dipole        =-2.22044605D-16 2.22044605D-16 0.00000000D+00
 ***** Axes restored to original set *****
 -------------------------------------------------------------------
 Center     Atomic                   Forces (Hartrees/Bohr)
 Number     Number              X              Y              Z
 -------------------------------------------------------------------
      1        5          -0.000000000    0.000000000   -0.000000000
      2        1           0.020752435   -0.006422019    0.020752435
      3        1           0.020752435    0.006422019   -0.020752435
      4        1          -0.020752435   -0.006422019   -0.020752435
      5        1          -0.020752435    0.006422019    0.020752435
 -------------------------------------------------------------------
 Cartesian Forces:  Max     0.020752435 RMS     0.015514032
 Leave Link  716 at Tue Jun 23 22:00:43 2026, MaxMem=  1879048192 cpu:               0.0 elap:               0.0
 (Enter /CH/g16/l103.exe)

 GradGradGradGradGradGradGradGradGradGradGradGradGradGradGradGradGradGrad
 Berny optimization.
 FormGI is forming the generalized inverse of G from B-inverse, IUseBI=4.
 Internal  Forces:  Max     0.037473610 RMS     0.018862405
 Search for a local minimum.
 Step number   1 out of a maximum of   24
 All quantities printed in internal units (Hartrees-Bohrs-Radians)
 RMS Force = .18862D-01 SwitMx=.10000D-02 MixMth= 1
 Mixed Optimization -- RFO/linear search
 Second derivative matrix not updated -- first step.
 The second derivative matrix:
                          R1        R2        R3        R4        A1
           R1           0.21963
           R2           0.00000   0.21963
           R3           0.00000   0.00000   0.21963
           R4           0.00000   0.00000   0.00000   0.21963
           A1           0.00000   0.00000   0.00000   0.00000   0.16000
           A2           0.00000   0.00000   0.00000   0.00000   0.00000
           A3           0.00000   0.00000   0.00000   0.00000   0.00000
           A4           0.00000   0.00000   0.00000   0.00000   0.00000
           A5           0.00000   0.00000   0.00000   0.00000   0.00000
           A6           0.00000   0.00000   0.00000   0.00000   0.00000
           D1           0.00000   0.00000   0.00000   0.00000   0.00000
           D2           0.00000   0.00000   0.00000   0.00000   0.00000
           D3           0.00000   0.00000   0.00000   0.00000   0.00000
           D4           0.00000   0.00000   0.00000   0.00000   0.00000
                          A2        A3        A4        A5        A6
           A2           0.16000
           A3           0.00000   0.16000
           A4           0.00000   0.00000   0.16000
           A5           0.00000   0.00000   0.00000   0.16000
           A6           0.00000   0.00000   0.00000   0.00000   0.16000
           D1           0.00000   0.00000   0.00000   0.00000   0.00000
           D2           0.00000   0.00000   0.00000   0.00000   0.00000
           D3           0.00000   0.00000   0.00000   0.00000   0.00000
           D4           0.00000   0.00000   0.00000   0.00000   0.00000
                          D1        D2        D3        D4
           D1           0.00230
           D2           0.00000   0.00230
           D3           0.00000   0.00000   0.00230
           D4           0.00000   0.00000   0.00000   0.00230
 ITU=  0
     Eigenvalues ---    0.05082   0.05715   0.08641   0.16000   0.16000
     Eigenvalues ---    0.21963   0.21963   0.21963   0.21963
 RFO step:  Lambda=-2.56168109D-02 EMin= 5.08230769D-02
 Linear search not attempted -- first point.
 Maximum step size (   0.300) exceeded in Quadratic search.
    -- Step size scaled by   0.841
 Iteration  1 RMS(Cart)=  0.10293043 RMS(Int)=  0.00514613
 Iteration  2 RMS(Cart)=  0.00533513 RMS(Int)=  0.00222877
 Iteration  3 RMS(Cart)=  0.00002545 RMS(Int)=  0.00222868
 Iteration  4 RMS(Cart)=  0.00000008 RMS(Int)=  0.00222868
 ITry= 1 IFail=0 DXMaxC= 1.27D-01 DCOld= 1.00D+10 DXMaxT= 3.00D-01 DXLimC= 3.00D+00 Rises=F
 Variable       Old X    -DE/DX   Delta X   Delta X   Delta X     New X
                                 (Linear)    (Quad)   (Total)
    R1        2.34321   0.02026   0.00000   0.06943   0.06943   2.41265
    R2        2.34321   0.02026   0.00000   0.06943   0.06943   2.41265
    R3        2.34321   0.02026   0.00000   0.06943   0.06943   2.41265
    R4        2.34321   0.02026   0.00000   0.06943   0.06943   2.41265
    A1        1.91063  -0.01058   0.00000  -0.06743  -0.06326   1.84738
    A2        1.91063   0.02677   0.00000   0.14451   0.14268   2.05331
    A3        1.91063  -0.02130   0.00000  -0.08432  -0.08295   1.82769
    A4        1.91063  -0.01166   0.00000  -0.07025  -0.06610   1.84453
    A5        1.91063   0.03747   0.00000   0.16151   0.16504   2.07567
    A6        1.91063  -0.02071   0.00000  -0.08402  -0.08257   1.82806
    D1        2.09440  -0.00370   0.00000  -0.03711  -0.03741   2.05699
    D2       -2.09440   0.00305   0.00000   0.03532   0.03685  -2.05755
    D3        2.09440   0.00706   0.00000   0.07390   0.07707   2.17146
    D4       -2.09440   0.00401   0.00000   0.03858   0.04022  -2.05418
         Item               Value     Threshold  Converged?
 Maximum Force            0.037474     0.000450     NO 
 RMS     Force            0.018862     0.000300     NO 
 Maximum Displacement     0.127046     0.001800     NO 
 RMS     Displacement     0.104831     0.001200     NO 
 Predicted change in Energy=-1.379923D-02
 Lowest energy point so far.  Saving SCF results.
 GradGradGradGradGradGradGradGradGradGradGradGradGradGradGradGradGradGrad

 Leave Link  103 at Tue Jun 23 22:00:43 2026, MaxMem=  1879048192 cpu:               0.0 elap:               0.0
 (Enter /CH/g16/l202.exe)
                          Input orientation:                          
 ---------------------------------------------------------------------
 Center     Atomic      Atomic             Coordinates (Angstroms)
 Number     Number       Type             X           Y           Z
 ---------------------------------------------------------------------
      1          5           0        0.003895   -0.004874   -0.003388
      2          1           0        0.768661    0.656322    0.776330
      3          1           0        0.778525   -0.658427   -0.779805
      4          1           0       -0.775304    0.655649   -0.769264
      5          1           0       -0.775778   -0.648670    0.776127
 ---------------------------------------------------------------------
                    Distance matrix (angstroms):
                    1          2          3          4          5
     1  B    0.000000
     2  H    1.276717   0.000000
     3  H    1.276717   2.037209   0.000000
     4  H    1.276717   2.184648   2.035016   0.000000
     5  H    1.276717   2.021954   2.199291   2.022246   0.000000
 Stoichiometry    BH4(2-,2)
 Framework group  C1[X(BH4)]
 Deg. of freedom     9
 Full point group                 C1      NOp   1
 Omega: Change in point group or standard orientation.

 Old FWG=TD   [O(B1),4C3(H1)]
 New FWG=C01  [X(B1H4)]
 RotChk:  IX=3 Diff= 2.15D+00
 Largest Abelian subgroup         C1      NOp   1
 Largest concise Abelian subgroup C1      NOp   1
                         Standard orientation:                         
 ---------------------------------------------------------------------
 Center     Atomic      Atomic             Coordinates (Angstroms)
 Number     Number       Type             X           Y           Z
 ---------------------------------------------------------------------
      1          5           0       -0.002913    0.000421   -0.002625
      2          1           0        0.111120    1.088238    0.655901
      3          1           0       -1.114745    0.084299   -0.624559
      4          1           0       -0.059192   -1.089758    0.659454
      5          1           0        1.077385   -0.084884   -0.677670
 ---------------------------------------------------------------------
 Rotational constants (GHZ):         122.2881231         121.3062225         104.3504932
 Leave Link  202 at Tue Jun 23 22:00:43 2026, MaxMem=  1879048192 cpu:               0.0 elap:               0.0
 (Enter /CH/g16/l301.exe)
 Standard basis: def2SVP (5D, 7F)
 Ernie: Thresh=  0.10000D-02 Tol=  0.10000D-05 Strict=F.
 There are    35 symmetry adapted cartesian basis functions of A   symmetry.
 There are    34 symmetry adapted basis functions of A   symmetry.
    34 basis functions,    53 primitive gaussians,    35 cartesian basis functions
     6 alpha electrons        5 beta electrons
       nuclear repulsion energy         9.8156773863 Hartrees.
 IExCor=  402 DFT=T Ex+Corr=B3LYP ExCW=0 ScaHFX=  0.200000
 ScaDFX=  0.800000  0.720000  1.000000  0.810000 ScalE2=  1.000000  1.000000
 IRadAn=      5 IRanWt=     -1 IRanGd=            0 ICorTp=0 IEmpDi=141
 NAtoms=    5 NActive=    5 NUniq=    5 SFac= 1.00D+00 NAtFMM=   60 NAOKFM=F Big=F
 Integral buffers will be    131072 words long.
 Raffenetti 2 integral format.
 Two-electron integral symmetry is turned on.
 R6Disp:  Grimme-D3(BJ) Dispersion energy=       -0.0021339503 Hartrees.
 Nuclear repulsion after empirical dispersion term =        9.8135434360 Hartrees.
 ------------------------------------------------------------------------------
 Polarizable Continuum Model (PCM)
 =================================
 Model                : PCM.
 Atomic radii         : SMD-Coulomb.
 Polarization charges : Total charges.
 Charge compensation  : None.
 Solution method      : On-the-fly selection.
 Cavity type          : VdW (van der Waals Surface) (Alpha=1.000).
 Cavity algorithm     : GePol (No added spheres)
                        Default sphere list used, NSphG=    5.
                        Lebedev-Laikov grids with approx.  5.0 points / Ang**2.
                        Smoothing algorithm: York/Karplus (Gamma=1.0000).
                        Polarization charges: spherical gaussians, with
                                              point-specific exponents (IZeta= 3).
                        Self-potential: point-specific (ISelfS= 7).
                        Self-field    : sphere-specific E.n sum rule (ISelfD= 2).
 1st derivatives      : Analytical E(r).r(x)/FMM algorithm (CHGder, D1EAlg=3).
                        Cavity 1st derivative terms included.
 Solvent              : TetraHydroFuran, Eps=   7.425700 Eps(inf)=   1.974025
 ------------------------------------------------------------------------------
 Spheres list:
 ISph  on   Nord     Re0    Alpha      Xe            Ye            Ze
    1   B      1    1.8000  1.000     -0.002913      0.000421     -0.002625
    2   H      2    1.2000  1.000      0.111120      1.088238      0.655901
    3   H      3    1.2000  1.000     -1.114745      0.084299     -0.624559
    4   H      4    1.2000  1.000     -0.059192     -1.089758      0.659454
    5   H      5    1.2000  1.000      1.077385     -0.084884     -0.677670
 ------------------------------------------------------------------------------
 GePol: Number of generator spheres                  =       5
 GePol: Total number of spheres                      =       5
 GePol: Number of exposed spheres                    =       5 (100.00%)
 GePol: Number of points                             =     426
 GePol: Average weight of points                     =       0.13
 GePol: Minimum weight of points                     =   0.22D-06
 GePol: Maximum weight of points                     =    0.17992
 GePol: Number of points with low weight             =      15
 GePol: Fraction of low-weight points (<1% of avg)   =       3.52%
 GePol: Cavity surface area                          =     54.666 Ang**2
 GePol: Cavity volume                                =     33.580 Ang**3
 ------------------------------------------------------------------------------
 Atomic radii for non-electrostatic terms: SMD-CDS.
 ------------------------------------------------------------------------------
 PCM non-electrostatic energy =         0.0017146733 Hartrees.
 Nuclear repulsion after PCM non-electrostatic terms =        9.8152581093 Hartrees.
 Leave Link  301 at Tue Jun 23 22:00:43 2026, MaxMem=  1879048192 cpu:               0.0 elap:               0.0
 (Enter /CH/g16/l302.exe)
 NPDir=0 NMtPBC=     1 NCelOv=     1 NCel=       1 NClECP=     1 NCelD=      1
         NCelK=      1 NCelE2=     1 NClLst=     1 CellRange=     0.0.
 One-electron integrals computed using PRISM.
 One-electron integral symmetry used in STVInt
   1 Symmetry operations used in ECPInt.
 ECPInt:  NShTT=     171 NPrTT=     553 LenC2=     172 LenP2D=     539.
 LDataN:  DoStor=T MaxTD1= 4 Len=   56
 NBasis=    34 RedAO= T EigKep=  7.11D-03  NBF=    34
 NBsUse=    34 1.00D-06 EigRej= -1.00D+00 NBFU=    34
 Precomputing XC quadrature grid using
 IXCGrd= 4 IRadAn=           5 IRanWt=          -1 IRanGd=           0 AccXCQ= 0.00D+00.
 Generated NRdTot=       0 NPtTot=           0 NUsed=           0 NTot=          32
 NSgBfM=    35    35    35    35    35 MxSgAt=     5 MxSgA2=     5.
 Leave Link  302 at Tue Jun 23 22:00:43 2026, MaxMem=  1879048192 cpu:               0.2 elap:               0.1
 (Enter /CH/g16/l303.exe)
 DipDrv:  MaxL=1.
 Leave Link  303 at Tue Jun 23 22:00:43 2026, MaxMem=  1879048192 cpu:               0.0 elap:               0.0
 (Enter /CH/g16/l401.exe)
 Initial guess from the checkpoint file:  "BH4_red.chk"
 B after Tr=    -0.000000    0.000000    0.000000
         Rot=    0.651508    0.299831    0.632967    0.291533 Ang=  98.69 deg.
 Guess basis will be translated and rotated to current coordinates.
 JPrj=2 DoOrth=T DoCkMO=T.
 Initial guess <Sx>= 0.0000 <Sy>= 0.0000 <Sz>= 0.5000 <S**2>= 0.7508 S= 0.5004
 Generating alternative initial guess.
 ExpMin= 8.36D-02 ExpMax= 8.39D+02 ExpMxC= 1.26D+02 IAcc=3 IRadAn=         5 AccDes= 0.00D+00
 Harris functional with IExCor=  402 and IRadAn=       5 diagonalized for initial guess.
 HarFok:  IExCor=  402 AccDes= 0.00D+00 IRadAn=         5 IDoV= 1 UseB2=F ITyADJ=14
 ICtDFT=  3500011 ScaDFX=  1.000000  1.000000  1.000000  1.000000
 FoFCou: FMM=F IPFlag=           0 FMFlag=      100000 FMFlg1=           0
         NFxFlg=           0 DoJE=T BraDBF=F KetDBF=T FulRan=T
         wScrn=  0.000000 ICntrl=       500 IOpCl=  0 I1Cent=   200000004 NGrid=           0
         NMat0=    1 NMatS0=      1 NMatT0=    0 NMatD0=    1 NMtDS0=    0 NMtDT0=    0
 Petite list used in FoFCou.
 Harris En= -27.4401060255436    
 Leave Link  401 at Tue Jun 23 22:00:43 2026, MaxMem=  1879048192 cpu:               0.5 elap:               0.1
 (Enter /CH/g16/l502.exe)
 Keep R1 and R2 ints in memory in canonical form, NReq=7267270.
 FoFCou: FMM=F IPFlag=           0 FMFlag=           0 FMFlg1=           0
         NFxFlg=           0 DoJE=F BraDBF=F KetDBF=F FulRan=T
         wScrn=  0.000000 ICntrl=       600 IOpCl=  0 I1Cent=           0 NGrid=           0
         NMat0=    1 NMatS0=    595 NMatT0=    0 NMatD0=    1 NMtDS0=    0 NMtDT0=    0
 Symmetry not used in FoFCou.
 Two-electron integral symmetry not used.
 UHF open shell SCF:
 Using DIIS extrapolation, IDIIS=  1040.
 NGot=  1879048192 LenX=  1878690144 LenY=  1878688478
 Requested convergence on RMS density matrix=1.00D-08 within 128 cycles.
 Requested convergence on MAX density matrix=1.00D-06.
 Requested convergence on             energy=1.00D-06.
 No special actions if energy rises.

 Cycle   1  Pass 1  IDiag  1:
 Inv3:  Mode=1 IEnd=      544428.
 Iteration    1 A*A^-1 deviation from unit magnitude is 3.00D-15 for    351.
 Iteration    1 A*A^-1 deviation from orthogonality  is 1.26D-15 for    402      5.
 Iteration    1 A^-1*A deviation from unit magnitude is 2.66D-15 for    183.
 Iteration    1 A^-1*A deviation from orthogonality  is 6.86D-15 for    422    351.
 E= -27.1957346205193    
 DIIS: error= 7.08D-03 at cycle   1 NSaved=   1.
 NSaved= 1 IEnMin= 1 EnMin= -27.1957346205193     IErMin= 1 ErrMin= 7.08D-03
 ErrMax= 7.08D-03  0.00D+00 EMaxC= 1.00D-01 BMatC= 3.58D-03 BMatP= 3.58D-03
 IDIUse=3 WtCom= 9.29D-01 WtEn= 7.08D-02
 Coeff-Com:  0.100D+01
 Coeff-En:   0.100D+01
 Coeff:      0.100D+01
 Gap=     0.384 Goal=   None    Shift=    0.000
 Gap=     0.693 Goal=   None    Shift=    0.000
 GapD=    0.384 DampG=1.000 DampE=1.000 DampFc=1.0000 IDamp=-1.
 RMSDP=1.28D-02 MaxDP=2.26D-01              OVMax= 4.81D-02

 Cycle   2  Pass 1  IDiag  1:
 E= -27.1984629307437     Delta-E=       -0.002728310224 Rises=F Damp=F
 DIIS: error= 1.49D-03 at cycle   2 NSaved=   2.
 NSaved= 2 IEnMin= 2 EnMin= -27.1984629307437     IErMin= 2 ErrMin= 1.49D-03
 ErrMax= 1.49D-03  0.00D+00 EMaxC= 1.00D-01 BMatC= 9.80D-05 BMatP= 3.58D-03
 IDIUse=3 WtCom= 9.85D-01 WtEn= 1.49D-02
 Coeff-Com: -0.751D-01 0.108D+01
 Coeff-En:   0.000D+00 0.100D+01
 Coeff:     -0.739D-01 0.107D+01
 Gap=     0.083 Goal=   None    Shift=    0.000
 Gap=     0.364 Goal=   None    Shift=    0.000
 RMSDP=3.08D-03 MaxDP=6.06D-02 DE=-2.73D-03 OVMax= 1.47D-02

 Cycle   3  Pass 1  IDiag  1:
 E= -27.1985315548243     Delta-E=       -0.000068624081 Rises=F Damp=F
 DIIS: error= 8.06D-04 at cycle   3 NSaved=   3.
 NSaved= 3 IEnMin= 3 EnMin= -27.1985315548243     IErMin= 3 ErrMin= 8.06D-04
 ErrMax= 8.06D-04  0.00D+00 EMaxC= 1.00D-01 BMatC= 6.38D-05 BMatP= 9.80D-05
 IDIUse=3 WtCom= 9.92D-01 WtEn= 8.06D-03
 Coeff-Com: -0.541D-01 0.509D+00 0.545D+00
 Coeff-En:   0.000D+00 0.000D+00 0.100D+01
 Coeff:     -0.537D-01 0.505D+00 0.549D+00
 Gap=     0.083 Goal=   None    Shift=    0.000
 Gap=     0.364 Goal=   None    Shift=    0.000
 RMSDP=6.02D-04 MaxDP=1.19D-02 DE=-6.86D-05 OVMax= 2.28D-03

 Cycle   4  Pass 1  IDiag  1:
 E= -27.1985579711445     Delta-E=       -0.000026416320 Rises=F Damp=F
 DIIS: error= 1.33D-04 at cycle   4 NSaved=   4.
 NSaved= 4 IEnMin= 4 EnMin= -27.1985579711445     IErMin= 4 ErrMin= 1.33D-04
 ErrMax= 1.33D-04  0.00D+00 EMaxC= 1.00D-01 BMatC= 1.22D-06 BMatP= 6.38D-05
 IDIUse=3 WtCom= 9.99D-01 WtEn= 1.33D-03
 Coeff-Com:  0.934D-02-0.135D+00-0.249D-01 0.115D+01
 Coeff-En:   0.000D+00 0.000D+00 0.000D+00 0.100D+01
 Coeff:      0.933D-02-0.134D+00-0.249D-01 0.115D+01
 Gap=     0.083 Goal=   None    Shift=    0.000
 Gap=     0.363 Goal=   None    Shift=    0.000
 RMSDP=1.01D-03 MaxDP=1.73D-02 DE=-2.64D-05 OVMax= 3.84D-03

 Cycle   5  Pass 1  IDiag  1:
 E= -27.1985607527870     Delta-E=       -0.000002781642 Rises=F Damp=F
 DIIS: error= 4.31D-05 at cycle   5 NSaved=   5.
 NSaved= 5 IEnMin= 5 EnMin= -27.1985607527870     IErMin= 5 ErrMin= 4.31D-05
 ErrMax= 4.31D-05  0.00D+00 EMaxC= 1.00D-01 BMatC= 1.38D-07 BMatP= 1.22D-06
 IDIUse=1 WtCom= 1.00D+00 WtEn= 0.00D+00
 Coeff-Com: -0.147D-02 0.320D-01-0.786D-02-0.401D+00 0.138D+01
 Coeff:     -0.147D-02 0.320D-01-0.786D-02-0.401D+00 0.138D+01
 Gap=     0.083 Goal=   None    Shift=    0.000
 Gap=     0.363 Goal=   None    Shift=    0.000
 RMSDP=8.44D-04 MaxDP=1.43D-02 DE=-2.78D-06 OVMax= 3.12D-03

 Cycle   6  Pass 1  IDiag  1:
 E= -27.1985618611034     Delta-E=       -0.000001108316 Rises=F Damp=F
 DIIS: error= 3.31D-05 at cycle   6 NSaved=   6.
 NSaved= 6 IEnMin= 6 EnMin= -27.1985618611034     IErMin= 6 ErrMin= 3.31D-05
 ErrMax= 3.31D-05  0.00D+00 EMaxC= 1.00D-01 BMatC= 6.18D-08 BMatP= 1.38D-07
 IDIUse=1 WtCom= 1.00D+00 WtEn= 0.00D+00
 Coeff-Com: -0.532D-03-0.139D-02 0.812D-02 0.105D+00-0.959D+00 0.185D+01
 Coeff:     -0.532D-03-0.139D-02 0.812D-02 0.105D+00-0.959D+00 0.185D+01
 Gap=     0.083 Goal=   None    Shift=    0.000
 Gap=     0.363 Goal=   None    Shift=    0.000
 RMSDP=9.48D-04 MaxDP=1.53D-02 DE=-1.11D-06 OVMax= 3.52D-03

 Cycle   7  Pass 1  IDiag  1:
 E= -27.1985627128278     Delta-E=       -0.000000851724 Rises=F Damp=F
 DIIS: error= 2.15D-05 at cycle   7 NSaved=   7.
 NSaved= 7 IEnMin= 7 EnMin= -27.1985627128278     IErMin= 7 ErrMin= 2.15D-05
 ErrMax= 2.15D-05  0.00D+00 EMaxC= 1.00D-01 BMatC= 2.64D-08 BMatP= 6.18D-08
 IDIUse=1 WtCom= 1.00D+00 WtEn= 0.00D+00
 Coeff-Com:  0.129D-02-0.197D-01 0.322D-02 0.190D+00-0.403D+00-0.912D+00
 Coeff-Com:  0.214D+01
 Coeff:      0.129D-02-0.197D-01 0.322D-02 0.190D+00-0.403D+00-0.912D+00
 Coeff:      0.214D+01
 Gap=     0.083 Goal=   None    Shift=    0.000
 Gap=     0.363 Goal=   None    Shift=    0.000
 RMSDP=1.23D-03 MaxDP=1.92D-02 DE=-8.52D-07 OVMax= 4.60D-03

 Cycle   8  Pass 1  IDiag  1:
 E= -27.1985632723579     Delta-E=       -0.000000559530 Rises=F Damp=F
 DIIS: error= 6.30D-06 at cycle   8 NSaved=   8.
 NSaved= 8 IEnMin= 8 EnMin= -27.1985632723579     IErMin= 8 ErrMin= 6.30D-06
 ErrMax= 6.30D-06  0.00D+00 EMaxC= 1.00D-01 BMatC= 3.93D-09 BMatP= 2.64D-08
 IDIUse=1 WtCom= 1.00D+00 WtEn= 0.00D+00
 Coeff-Com:  0.104D-03 0.172D-02-0.245D-02-0.440D-01 0.325D+00-0.512D+00
 Coeff-Com: -0.306D-01 0.126D+01
 Coeff:      0.104D-03 0.172D-02-0.245D-02-0.440D-01 0.325D+00-0.512D+00
 Coeff:     -0.306D-01 0.126D+01
 Gap=     0.083 Goal=   None    Shift=    0.000
 Gap=     0.363 Goal=   None    Shift=    0.000
 RMSDP=3.76D-04 MaxDP=5.65D-03 DE=-5.60D-07 OVMax= 1.40D-03

 Cycle   9  Pass 1  IDiag  1:
 E= -27.1985633238366     Delta-E=       -0.000000051479 Rises=F Damp=F
 DIIS: error= 2.25D-06 at cycle   9 NSaved=   9.
 NSaved= 9 IEnMin= 9 EnMin= -27.1985633238366     IErMin= 9 ErrMin= 2.25D-06
 ErrMax= 2.25D-06  0.00D+00 EMaxC= 1.00D-01 BMatC= 4.72D-10 BMatP= 3.93D-09
 IDIUse=1 WtCom= 1.00D+00 WtEn= 0.00D+00
 Coeff-Com: -0.201D-03 0.269D-02-0.794D-03-0.241D-01 0.341D-01 0.126D+00
 Coeff-Com: -0.224D+00-0.264D+00 0.135D+01
 Coeff:     -0.201D-03 0.269D-02-0.794D-03-0.241D-01 0.341D-01 0.126D+00
 Coeff:     -0.224D+00-0.264D+00 0.135D+01
 Gap=     0.083 Goal=   None    Shift=    0.000
 Gap=     0.363 Goal=   None    Shift=    0.000
 RMSDP=1.21D-04 MaxDP=1.94D-03 DE=-5.15D-08 OVMax= 4.46D-04

 Cycle  10  Pass 1  IDiag  1:
 E= -27.1985633287916     Delta-E=       -0.000000004955 Rises=F Damp=F
 DIIS: error= 6.28D-07 at cycle  10 NSaved=  10.
 NSaved=10 IEnMin=10 EnMin= -27.1985633287916     IErMin=10 ErrMin= 6.28D-07
 ErrMax= 6.28D-07  0.00D+00 EMaxC= 1.00D-01 BMatC= 6.95D-11 BMatP= 4.72D-10
 IDIUse=1 WtCom= 1.00D+00 WtEn= 0.00D+00
 Coeff-Com:  0.683D-04-0.130D-02 0.649D-03 0.148D-01-0.508D-01-0.924D-02
 Coeff-Com:  0.144D+00-0.169D+00-0.345D+00 0.142D+01
 Coeff:      0.683D-04-0.130D-02 0.649D-03 0.148D-01-0.508D-01-0.924D-02
 Coeff:      0.144D+00-0.169D+00-0.345D+00 0.142D+01
 Gap=     0.083 Goal=   None    Shift=    0.000
 Gap=     0.363 Goal=   None    Shift=    0.000
 RMSDP=2.30D-05 MaxDP=3.72D-04 DE=-4.96D-09 OVMax= 8.12D-05

 Cycle  11  Pass 1  IDiag  1:
 E= -27.1985633291314     Delta-E=       -0.000000000340 Rises=F Damp=F
 DIIS: error= 2.05D-07 at cycle  11 NSaved=  11.
 NSaved=11 IEnMin=11 EnMin= -27.1985633291314     IErMin=11 ErrMin= 2.05D-07
 ErrMax= 2.05D-07  0.00D+00 EMaxC= 1.00D-01 BMatC= 4.22D-12 BMatP= 6.95D-11
 IDIUse=1 WtCom= 1.00D+00 WtEn= 0.00D+00
 Coeff-Com: -0.888D-05 0.268D-03-0.148D-03-0.344D-02 0.171D-01-0.156D-01
 Coeff-Com: -0.209D-01 0.669D-01 0.477D-01-0.592D+00 0.150D+01
 Coeff:     -0.888D-05 0.268D-03-0.148D-03-0.344D-02 0.171D-01-0.156D-01
 Coeff:     -0.209D-01 0.669D-01 0.477D-01-0.592D+00 0.150D+01
 Gap=     0.083 Goal=   None    Shift=    0.000
 Gap=     0.363 Goal=   None    Shift=    0.000
 RMSDP=4.81D-06 MaxDP=6.26D-05 DE=-3.40D-10 OVMax= 1.64D-05

 Cycle  12  Pass 1  IDiag  1:
 E= -27.1985633291486     Delta-E=       -0.000000000017 Rises=F Damp=F
 DIIS: error= 2.72D-08 at cycle  12 NSaved=  12.
 NSaved=12 IEnMin=12 EnMin= -27.1985633291486     IErMin=12 ErrMin= 2.72D-08
 ErrMax= 2.72D-08  0.00D+00 EMaxC= 1.00D-01 BMatC= 9.50D-14 BMatP= 4.22D-12
 IDIUse=1 WtCom= 1.00D+00 WtEn= 0.00D+00
 Coeff-Com: -0.308D-05 0.627D-04-0.274D-04-0.721D-03 0.268D-02-0.529D-03
 Coeff-Com: -0.600D-02 0.811D-02 0.174D-01-0.866D-01 0.576D-01 0.101D+01
 Coeff:     -0.308D-05 0.627D-04-0.274D-04-0.721D-03 0.268D-02-0.529D-03
 Coeff:     -0.600D-02 0.811D-02 0.174D-01-0.866D-01 0.576D-01 0.101D+01
 Gap=     0.083 Goal=   None    Shift=    0.000
 Gap=     0.363 Goal=   None    Shift=    0.000
 RMSDP=5.76D-07 MaxDP=9.27D-06 DE=-1.73D-11 OVMax= 2.02D-06

 Cycle  13  Pass 1  IDiag  1:
 E= -27.1985633291488     Delta-E=       -0.000000000000 Rises=F Damp=F
 DIIS: error= 5.21D-09 at cycle  13 NSaved=  13.
 NSaved=13 IEnMin=13 EnMin= -27.1985633291488     IErMin=13 ErrMin= 5.21D-09
 ErrMax= 5.21D-09  0.00D+00 EMaxC= 1.00D-01 BMatC= 3.79D-15 BMatP= 9.50D-14
 IDIUse=1 WtCom= 1.00D+00 WtEn= 0.00D+00
 Coeff-Com:  0.147D-06-0.731D-05 0.482D-05 0.100D-03-0.613D-03 0.760D-03
 Coeff-Com:  0.467D-03-0.267D-02-0.139D-03 0.208D-01-0.708D-01 0.129D+00
 Coeff-Com:  0.923D+00
 Coeff:      0.147D-06-0.731D-05 0.482D-05 0.100D-03-0.613D-03 0.760D-03
 Coeff:      0.467D-03-0.267D-02-0.139D-03 0.208D-01-0.708D-01 0.129D+00
 Coeff:      0.923D+00
 Gap=     0.083 Goal=   None    Shift=    0.000
 Gap=     0.363 Goal=   None    Shift=    0.000
 RMSDP=3.45D-08 MaxDP=6.29D-07 DE=-1.56D-13 OVMax= 1.23D-07

 Cycle  14  Pass 1  IDiag  1:
 E= -27.1985633291488     Delta-E=       -0.000000000000 Rises=F Damp=F
 DIIS: error= 8.36D-10 at cycle  14 NSaved=  14.
 NSaved=14 IEnMin=14 EnMin= -27.1985633291488     IErMin=14 ErrMin= 8.36D-10
 ErrMax= 8.36D-10  0.00D+00 EMaxC= 1.00D-01 BMatC= 5.29D-17 BMatP= 3.79D-15
 IDIUse=1 WtCom= 1.00D+00 WtEn= 0.00D+00
 Coeff-Com:  0.556D-07-0.625D-06-0.240D-06 0.462D-05 0.166D-04-0.851D-04
 Coeff-Com:  0.732D-04 0.177D-03-0.374D-03-0.102D-02 0.897D-02-0.392D-01
 Coeff-Com: -0.130D+00 0.116D+01
 Coeff:      0.556D-07-0.625D-06-0.240D-06 0.462D-05 0.166D-04-0.851D-04
 Coeff:      0.732D-04 0.177D-03-0.374D-03-0.102D-02 0.897D-02-0.392D-01
 Coeff:     -0.130D+00 0.116D+01
 Gap=     0.083 Goal=   None    Shift=    0.000
 Gap=     0.363 Goal=   None    Shift=    0.000
 RMSDP=3.76D-09 MaxDP=5.22D-08 DE=-1.07D-14 OVMax= 1.36D-08

 Error on total polarization charges =  0.13447
 SCF Done:  E(UB3LYP) =  -27.1985633291     A.U. after   14 cycles
            NFock= 14  Conv=0.38D-08     -V/T= 2.0095
 <Sx>= 0.0000 <Sy>= 0.0000 <Sz>= 0.5000 <S**2>= 0.7507 S= 0.5003
 <L.S>=  0.00000000000    
 KE= 2.694281073194D+01 PE=-8.623609813516D+01 EE= 2.227946596480D+01
 SMD-CDS (non-electrostatic) energy       (kcal/mol) =       1.08
 (included in total energy above)
 Annihilation of the first spin contaminant:
 S**2 before annihilation     0.7507,   after     0.7500
 Leave Link  502 at Tue Jun 23 22:00:44 2026, MaxMem=  1879048192 cpu:               6.0 elap:               0.8
 (Enter /CH/g16/l701.exe)
 ... and contract with generalized density number  0.
 Compute integral first derivatives.
 R6Disp: Adding Grimme-D3(BJ) dispersion energy 1st derivatives to the gradient.
   1 Symmetry operations used in ECPInt.
 ECPInt:  NShTT=     171 NPrTT=     553 LenC2=     172 LenP2D=     539.
 LDataN:  DoStor=T MaxTD1= 5 Len=  102
 D1PCM: PCM CHGder 1st derivatives, ID1Alg=3 FixD1E=F DoIter=F DoCFld=F I1PDM=0.
 GePol: Maximum number of non-zero 1st derivatives   =     255
 Leave Link  701 at Tue Jun 23 22:00:44 2026, MaxMem=  1879048192 cpu:               1.1 elap:               0.2
 (Enter /CH/g16/l702.exe)
 L702 exits ... SP integral derivatives will be done elsewhere.
 Leave Link  702 at Tue Jun 23 22:00:44 2026, MaxMem=  1879048192 cpu:               0.0 elap:               0.0
 (Enter /CH/g16/l703.exe)
 Integral derivatives from FoFJK, PRISM(SPDF).
 Compute integral first derivatives, UseDBF=F ICtDFT=           0.
 Calling FoFJK, ICntrl=      2127 FMM=F ISym2X=0 I1Cent= 0 IOpClX= 1 NMat=1 NMatS=1 NMatT=0.
 FoFJK:  IHMeth= 1 ICntrl=    2127 DoSepK=F KAlg= 0 I1Cent=           0 FoldK=F
 IRaf=         0 NMat=       1 IRICut=       1 DoRegI=T DoRafI=F ISym2E= 0 IDoP0=0 IntGTp=1.
 FoFCou: FMM=F IPFlag=           0 FMFlag=      100000 FMFlg1=         800
         NFxFlg=           0 DoJE=F BraDBF=F KetDBF=F FulRan=T
         wScrn=  0.000000 ICntrl=      2127 IOpCl=  1 I1Cent=           0 NGrid=           0
         NMat0=    1 NMatS0=      1 NMatT0=    0 NMatD0=    1 NMtDS0=    0 NMtDT0=    0
 Symmetry not used in FoFCou.
 Leave Link  703 at Tue Jun 23 22:00:44 2026, MaxMem=  1879048192 cpu:               0.7 elap:               0.1
 (Enter /CH/g16/l716.exe)
 Dipole        =-6.27036521D-04 6.18983238D-04 3.94616081D-02
 ***** Axes restored to original set *****
 -------------------------------------------------------------------
 Center     Atomic                   Forces (Hartrees/Bohr)
 Number     Number              X              Y              Z
 -------------------------------------------------------------------
      1        5           0.001835889    0.000354482   -0.001812300
      2        1           0.010885168   -0.007968297    0.010157619
      3        1           0.010418518    0.008367241   -0.010133759
      4        1          -0.010347763   -0.007946418   -0.010888006
      5        1          -0.012791813    0.007192993    0.012676446
 -------------------------------------------------------------------
 Cartesian Forces:  Max     0.012791813 RMS     0.009084860
 Leave Link  716 at Tue Jun 23 22:00:44 2026, MaxMem=  1879048192 cpu:               0.0 elap:               0.0
 (Enter /CH/g16/l103.exe)

 GradGradGradGradGradGradGradGradGradGradGradGradGradGradGradGradGradGrad
 Berny optimization.
 Using GEDIIS/GDIIS optimizer.
 FormGI is forming the generalized inverse of G from B-inverse, IUseBI=4.
 Internal  Forces:  Max     0.027357224 RMS     0.011833033
 Search for a local minimum.
 Step number   2 out of a maximum of   24
 All quantities printed in internal units (Hartrees-Bohrs-Radians)
 RMS Force = .11833D-01 SwitMx=.10000D-02 MixMth= 1
 Mixed Optimization -- RFO/linear search
 Update second derivatives using D2CorX and points    1    2
 DE= -1.75D-02 DEPred=-1.38D-02 R= 1.27D+00
 TightC=F SS=  1.41D+00  RLast= 3.15D-01 DXNew= 5.0454D-01 9.4517D-01
 Trust test= 1.27D+00 RLast= 3.15D-01 DXMaxT set to 5.05D-01
 The second derivative matrix:
                          R1        R2        R3        R4        A1
           R1           0.22179
           R2           0.00274   0.22298
           R3           0.00195   0.00253   0.22138
           R4          -0.00276  -0.00234  -0.00291   0.21335
           A1           0.00392   0.00371   0.00399   0.00566   0.15551
           A2          -0.00894  -0.00848  -0.00910  -0.01284   0.01017
           A3           0.00234   0.00197   0.00247   0.00542  -0.00490
           A4           0.00353   0.00329   0.00361   0.00551  -0.00450
           A5          -0.01117  -0.01066  -0.01135  -0.01544   0.01206
           A6           0.00285   0.00250   0.00297   0.00576  -0.00506
           D1          -0.00099  -0.00103  -0.00098  -0.00068   0.00032
           D2           0.00018   0.00019   0.00018   0.00010  -0.00004
           D3           0.00099   0.00103   0.00098   0.00066  -0.00030
           D4           0.00081   0.00084   0.00080   0.00055  -0.00026
                          A2        A3        A4        A5        A6
           A2           0.13698
           A3           0.01112   0.15533
           A4           0.01018  -0.00477   0.15553
           A5          -0.02728   0.01338   0.01211   0.12773
           A6           0.01148  -0.00498  -0.00495   0.01377   0.15474
           D1          -0.00072   0.00060   0.00037  -0.00079   0.00056
           D2           0.00008  -0.00009  -0.00005   0.00008  -0.00008
           D3           0.00066  -0.00058  -0.00035   0.00071  -0.00054
           D4           0.00058  -0.00049  -0.00030   0.00063  -0.00046
                          D1        D2        D3        D4
           D1           0.00237
           D2          -0.00002   0.00230
           D3          -0.00007   0.00002   0.00238
           D4          -0.00006   0.00001   0.00006   0.00235
 ITU=  1  0
 Use linear search instead of GDIIS.
 Linear search step of   0.597 exceeds DXMaxT=   0.505 but not scaled.
 Quartic linear search produced a step of  2.00000.
 Iteration  1 RMS(Cart)=  0.17107868 RMS(Int)=  0.04426936
 Iteration  2 RMS(Cart)=  0.06239977 RMS(Int)=  0.01567549
 Iteration  3 RMS(Cart)=  0.00250269 RMS(Int)=  0.01548107
 Iteration  4 RMS(Cart)=  0.00004957 RMS(Int)=  0.01548103
 Iteration  5 RMS(Cart)=  0.00000124 RMS(Int)=  0.01548103
 Iteration  6 RMS(Cart)=  0.00000004 RMS(Int)=  0.01548103
 ITry= 1 IFail=0 DXMaxC= 3.18D-01 DCOld= 1.00D+10 DXMaxT= 5.05D-01 DXLimC= 3.00D+00 Rises=F
 Variable       Old X    -DE/DX   Delta X   Delta X   Delta X     New X
                                 (Linear)    (Quad)   (Total)
    R1        2.41265   0.00860   0.13887   0.00000   0.13887   2.55151
    R2        2.41265   0.00820   0.13887   0.00000   0.13887   2.55151
    R3        2.41265   0.00874   0.13887   0.00000   0.13887   2.55151
    R4        2.41265   0.01192   0.13887   0.00000   0.13887   2.55151
    A1        1.84738  -0.00646  -0.12651   0.00000  -0.10085   1.74653
    A2        2.05331   0.01754   0.28536   0.00000   0.26722   2.32053
    A3        1.82769  -0.01400  -0.16590   0.00000  -0.14967   1.67802
    A4        1.84453  -0.00697  -0.13220   0.00000  -0.10574   1.73880
    A5        2.07567   0.02736   0.33008   0.00000   0.34950   2.42518
    A6        1.82806  -0.01379  -0.16514   0.00000  -0.14843   1.67963
    D1        2.05699  -0.00297  -0.07482   0.00000  -0.07445   1.98253
    D2       -2.05755   0.00287   0.07369   0.00000   0.08463  -1.97292
    D3        2.17146   0.00627   0.15413   0.00000   0.17644   2.34791
    D4       -2.05418   0.00340   0.08044   0.00000   0.09182  -1.96236
         Item               Value     Threshold  Converged?
 Maximum Force            0.027357     0.000450     NO 
 RMS     Force            0.011833     0.000300     NO 
 Maximum Displacement     0.318262     0.001800     NO 
 RMS     Displacement     0.218755     0.001200     NO 
 Predicted change in Energy=-1.173252D-02
 Lowest energy point so far.  Saving SCF results.
 GradGradGradGradGradGradGradGradGradGradGradGradGradGradGradGradGradGrad

 Leave Link  103 at Tue Jun 23 22:00:44 2026, MaxMem=  1879048192 cpu:               0.0 elap:               0.0
 (Enter /CH/g16/l202.exe)
                          Input orientation:                          
 ---------------------------------------------------------------------
 Center     Atomic      Atomic             Coordinates (Angstroms)
 Number     Number       Type             X           Y           Z
 ---------------------------------------------------------------------
      1          5           0        0.013276   -0.025691   -0.011962
      2          1           0        0.860579    0.512849    0.890865
      3          1           0        0.899859   -0.517768   -0.903518
      4          1           0       -0.887869    0.510863   -0.862310
      5          1           0       -0.885846   -0.480253    0.886925
 ---------------------------------------------------------------------
                    Distance matrix (angstroms):
                    1          2          3          4          5
     1  B    0.000000
     2  H    1.350202   0.000000
     3  H    1.350202   2.069668   0.000000
     4  H    1.350202   2.476025   2.062947   0.000000
     5  H    1.350202   2.009047   2.528999   2.010507   0.000000
 Stoichiometry    BH4(2-,2)
 Framework group  C1[X(BH4)]
 Deg. of freedom     9
 Full point group                 C1      NOp   1
 RotChk:  IX=3 Diff= 2.50D-02
 Largest Abelian subgroup         C1      NOp   1
 Largest concise Abelian subgroup C1      NOp   1
                         Standard orientation:                         
 ---------------------------------------------------------------------
 Center     Atomic      Atomic             Coordinates (Angstroms)
 Number     Number       Type             X           Y           Z
 ---------------------------------------------------------------------
      1          5           0       -0.010381    0.001135   -0.013900
      2          1           0        0.124916    1.233582    0.520714
      3          1           0       -1.282753    0.075512   -0.459526
      4          1           0       -0.031283   -1.237509    0.523098
      5          1           0        1.241023   -0.077262   -0.514785
 ---------------------------------------------------------------------
 Rotational constants (GHZ):         122.6820489         118.6679712          80.0032163
 Leave Link  202 at Tue Jun 23 22:00:44 2026, MaxMem=  1879048192 cpu:               0.0 elap:               0.0
 (Enter /CH/g16/l301.exe)
 Standard basis: def2SVP (5D, 7F)
 Ernie: Thresh=  0.10000D-02 Tol=  0.10000D-05 Strict=F.
 There are    35 symmetry adapted cartesian basis functions of A   symmetry.
 There are    34 symmetry adapted basis functions of A   symmetry.
    34 basis functions,    53 primitive gaussians,    35 cartesian basis functions
     6 alpha electrons        5 beta electrons
       nuclear repulsion energy         9.3002566739 Hartrees.
 IExCor=  402 DFT=T Ex+Corr=B3LYP ExCW=0 ScaHFX=  0.200000
 ScaDFX=  0.800000  0.720000  1.000000  0.810000 ScalE2=  1.000000  1.000000
 IRadAn=      5 IRanWt=     -1 IRanGd=            0 ICorTp=0 IEmpDi=141
 NAtoms=    5 NActive=    5 NUniq=    5 SFac= 1.00D+00 NAtFMM=   60 NAOKFM=F Big=F
 Integral buffers will be    131072 words long.
 Raffenetti 2 integral format.
 Two-electron integral symmetry is turned on.
 R6Disp:  Grimme-D3(BJ) Dispersion energy=       -0.0021998138 Hartrees.
 Nuclear repulsion after empirical dispersion term =        9.2980568601 Hartrees.
 ------------------------------------------------------------------------------
 Polarizable Continuum Model (PCM)
 =================================
 Model                : PCM.
 Atomic radii         : SMD-Coulomb.
 Polarization charges : Total charges.
 Charge compensation  : None.
 Solution method      : On-the-fly selection.
 Cavity type          : VdW (van der Waals Surface) (Alpha=1.000).
 Cavity algorithm     : GePol (No added spheres)
                        Default sphere list used, NSphG=    5.
                        Lebedev-Laikov grids with approx.  5.0 points / Ang**2.
                        Smoothing algorithm: York/Karplus (Gamma=1.0000).
                        Polarization charges: spherical gaussians, with
                                              point-specific exponents (IZeta= 3).
                        Self-potential: point-specific (ISelfS= 7).
                        Self-field    : sphere-specific E.n sum rule (ISelfD= 2).
 1st derivatives      : Analytical E(r).r(x)/FMM algorithm (CHGder, D1EAlg=3).
                        Cavity 1st derivative terms included.
 Solvent              : TetraHydroFuran, Eps=   7.425700 Eps(inf)=   1.974025
 ------------------------------------------------------------------------------
 Spheres list:
 ISph  on   Nord     Re0    Alpha      Xe            Ye            Ze
    1   B      1    1.8000  1.000     -0.010381      0.001135     -0.013900
    2   H      2    1.2000  1.000      0.124916      1.233582      0.520714
    3   H      3    1.2000  1.000     -1.282753      0.075512     -0.459526
    4   H      4    1.2000  1.000     -0.031283     -1.237509      0.523098
    5   H      5    1.2000  1.000      1.241023     -0.077262     -0.514785
 ------------------------------------------------------------------------------
 GePol: Number of generator spheres                  =       5
 GePol: Total number of spheres                      =       5
 GePol: Number of exposed spheres                    =       5 (100.00%)
 GePol: Number of points                             =     435
 GePol: Average weight of points                     =       0.13
 GePol: Minimum weight of points                     =   0.89D-07
 GePol: Maximum weight of points                     =    0.17992
 GePol: Number of points with low weight             =      12
 GePol: Fraction of low-weight points (<1% of avg)   =       2.76%
 GePol: Cavity surface area                          =     56.411 Ang**2
 GePol: Cavity volume                                =     34.683 Ang**3
 ------------------------------------------------------------------------------
 Atomic radii for non-electrostatic terms: SMD-CDS.
 ------------------------------------------------------------------------------
 PCM non-electrostatic energy =         0.0017740728 Hartrees.
 Nuclear repulsion after PCM non-electrostatic terms =        9.2998309329 Hartrees.
 Leave Link  301 at Tue Jun 23 22:00:44 2026, MaxMem=  1879048192 cpu:               0.0 elap:               0.0
 (Enter /CH/g16/l302.exe)
 NPDir=0 NMtPBC=     1 NCelOv=     1 NCel=       1 NClECP=     1 NCelD=      1
         NCelK=      1 NCelE2=     1 NClLst=     1 CellRange=     0.0.
 One-electron integrals computed using PRISM.
 One-electron integral symmetry used in STVInt
   1 Symmetry operations used in ECPInt.
 ECPInt:  NShTT=     171 NPrTT=     553 LenC2=     172 LenP2D=     535.
 LDataN:  DoStor=T MaxTD1= 4 Len=   56
 NBasis=    34 RedAO= T EigKep=  1.34D-02  NBF=    34
 NBsUse=    34 1.00D-06 EigRej= -1.00D+00 NBFU=    34
 Precomputing XC quadrature grid using
 IXCGrd= 4 IRadAn=           5 IRanWt=          -1 IRanGd=           0 AccXCQ= 0.00D+00.
 Generated NRdTot=       0 NPtTot=           0 NUsed=           0 NTot=          32
 NSgBfM=    35    35    35    35    35 MxSgAt=     5 MxSgA2=     5.
 Leave Link  302 at Tue Jun 23 22:00:44 2026, MaxMem=  1879048192 cpu:               0.2 elap:               0.1
 (Enter /CH/g16/l303.exe)
 DipDrv:  MaxL=1.
 Leave Link  303 at Tue Jun 23 22:00:44 2026, MaxMem=  1879048192 cpu:               0.0 elap:               0.0
 (Enter /CH/g16/l401.exe)
 Initial guess from the checkpoint file:  "BH4_red.chk"
[...]
         NMat0=    1 NMatS0=      1 NMatT0=    0 NMatD0=    1 NMtDS0=    0 NMtDT0=    0
 Symmetry not used in FoFCou.
 Leave Link  703 at Tue Jun 23 22:01:13 2026, MaxMem=  1879048192 cpu:               0.6 elap:               0.1
 (Enter /CH/g16/l716.exe)
 Dipole        =-1.03140658D+01 3.18002958D-02-1.56004110D-01
 ***** Axes restored to original set *****
 -------------------------------------------------------------------
 Center     Atomic                   Forces (Hartrees/Bohr)
 Number     Number              X              Y              Z
 -------------------------------------------------------------------
      1        5          -0.017791441   -0.003913661    0.003951237
      2        1           0.004099924    0.001122299   -0.001208195
      3        1           0.013436665    0.002585421   -0.003525780
      4        1           0.000744079    0.000309881    0.000165269
      5        1          -0.000489227   -0.000103940    0.000617469
 -------------------------------------------------------------------
 Cartesian Forces:  Max     0.017791441 RMS     0.006153378
 Leave Link  716 at Tue Jun 23 22:01:13 2026, MaxMem=  1879048192 cpu:               0.0 elap:               0.0
 (Enter /CH/g16/l103.exe)

 GradGradGradGradGradGradGradGradGradGradGradGradGradGradGradGradGradGrad
 Berny optimization.
 Using GEDIIS/GDIIS optimizer.
 FormGI is forming the generalized inverse of G from B-inverse, IUseBI=4.
 Internal  Forces:  Max     0.013716833 RMS     0.004022247
 Search for a local minimum.
 Step number  24 out of a maximum of   24
 All quantities printed in internal units (Hartrees-Bohrs-Radians)
 RMS Force = .40222D-02 SwitMx=.10000D-02 MixMth= 1
 Mixed Optimization -- RFO/linear search
 Update second derivatives using D2CorX and points   23   24
 DE= -1.29D-03 DEPred=-8.77D-04 R= 1.47D+00
 TightC=F SS=  1.41D+00  RLast= 1.77D+00 DXNew= 5.0454D+00 5.3055D+00
 Trust test= 1.47D+00 RLast= 1.77D+00 DXMaxT set to 3.00D+00
 The second derivative matrix:
                          R1        R2        R3        R4        A1
           R1           0.60458
           R2          -0.28380   0.54029
           R3           0.34551  -0.25219   0.53913
           R4          -0.07117   0.04871  -0.06754   0.01386
           A1          -0.18885   0.06421  -0.16498   0.03113   0.18519
           A2          -0.15579   0.07483  -0.14802   0.02890   0.07330
           A3          -0.21838   0.13150  -0.19059   0.03699   0.11114
           A4          -0.08261   0.06349  -0.07353   0.01542   0.01963
           A5           0.13657  -0.11521   0.11719  -0.02456  -0.03884
           A6           0.06659  -0.01753   0.05024  -0.01063   0.00735
           D1          -0.13137   0.09034  -0.12187   0.02525   0.06864
           D2           0.14889  -0.10309   0.14014  -0.02848  -0.06718
           D3           0.32167  -0.20920   0.29644  -0.05922  -0.14331
           D4           0.17279  -0.10611   0.15630  -0.03074  -0.07612
                          A2        A3        A4        A5        A6
           A2           0.09967
           A3           0.10364   0.16603
           A4           0.03222   0.07218   0.13934
           A5          -0.05348  -0.04251  -0.00800   0.11969
           A6          -0.01995  -0.03989  -0.01226   0.02502   0.13506
           D1           0.05318   0.06949   0.03451  -0.06322  -0.01462
           D2          -0.06060  -0.07581  -0.02993   0.05842   0.01667
           D3          -0.12512  -0.16485  -0.06386   0.12613   0.03480
           D4          -0.06452  -0.08904  -0.03393   0.06770   0.01813
                          D1        D2        D3        D4
           D1           0.05848
           D2          -0.05494   0.06145
           D3          -0.11644   0.12538   0.27074
           D4          -0.06150   0.06623   0.14306   0.07913
 ITU=  1  1  1  1  1  1  1  1  1  1  0  1  1  1  1
 Use linear search instead of GDIIS.
     Eigenvalues ---    0.00022   0.00486   0.01838   0.06197   0.06794
     Eigenvalues ---    0.13835   0.22536   0.32778   1.38950
 RFO step:  Lambda=-8.08833986D-04 EMin= 2.17802580D-04
 Quartic linear search produced a step of  1.10486.
 Iteration  1 RMS(Cart)=  0.10410965 RMS(Int)=  0.45505247
 Iteration  2 RMS(Cart)=  0.08814446 RMS(Int)=  0.38584033
 Iteration  3 RMS(Cart)=  0.06380918 RMS(Int)=  0.32965979
 Iteration  4 RMS(Cart)=  0.04792003 RMS(Int)=  0.27648861
 Iteration  5 RMS(Cart)=  0.04781231 RMS(Int)=  0.22345997
 Iteration  6 RMS(Cart)=  0.04780791 RMS(Int)=  0.17069580
 Iteration  7 RMS(Cart)=  0.04780783 RMS(Int)=  0.11854975
 Iteration  8 RMS(Cart)=  0.04780785 RMS(Int)=  0.06844936
 Iteration  9 RMS(Cart)=  0.04780788 RMS(Int)=  0.03210718
 Iteration 10 RMS(Cart)=  0.00667055 RMS(Int)=  0.03122897
 Iteration 11 RMS(Cart)=  0.00000004 RMS(Int)=  0.03122897
 ITry= 1 IFail=0 DXMaxC= 1.22D+00 DCOld= 1.00D+10 DXMaxT= 3.00D+00 DXLimC= 3.00D+00 Rises=F
 Variable       Old X    -DE/DX   Delta X   Delta X   Delta X     New X
                                 (Linear)    (Quad)   (Total)
    R1        2.31375  -0.00176   0.00795  -0.00837  -0.00042   2.31332
    R2        2.24805   0.01372  -0.00263   0.02727   0.02463   2.27269
    R3        2.31879  -0.00071   0.00470   0.00107   0.00577   2.32455
    R4       13.26036   0.00079   1.78520   0.04302   1.82822  15.08858
    A1        2.17347  -0.00393   0.01178  -0.04482   0.02482   2.19829
    A2        2.04022   0.00238   0.00565   0.02993   0.00025   2.04048
    A3        0.66715   0.00261   0.02408   0.03259   0.12821   0.79536
    A4        2.06707   0.00157  -0.02003   0.01099  -0.04006   2.02701
    A5        2.71733  -0.00178  -0.08236  -0.02049  -0.14313   2.57421
    A6        1.43976  -0.00006   0.04743   0.01713   0.06920   1.50896
    D1       -3.07030  -0.00001   0.06496   0.05915   0.11604  -2.95426
    D2        0.94549  -0.00052   0.64108   0.00490   0.61692   1.56241
    D3       -2.70163  -0.00048   0.32460   0.05166   0.36144  -2.34019
    D4        2.63607   0.00004  -0.31648   0.04675  -0.25548   2.38059
         Item               Value     Threshold  Converged?
 Maximum Force            0.013717     0.000450     NO 
 RMS     Force            0.004022     0.000300     NO 
 Maximum Displacement     1.218518     0.001800     NO 
 RMS     Displacement     0.490438     0.001200     NO 
 Predicted change in Energy=-2.874434D-04
 Optimization stopped.
    -- Number of steps exceeded,  NStep=  24
    -- Flag reset to prevent archiving.
                           ----------------------------
                           ! Non-Optimized Parameters !
                           ! (Angstroms and Degrees)  !
 --------------------------                            --------------------------
 ! Name  Definition              Value          Derivative Info.                !
 --------------------------------------------------------------------------------
 ! R1    R(1,2)                  1.2242         -DE/DX =   -0.0018              !
 ! R2    R(1,3)                  1.2027         -DE/DX =    0.0137              !
 ! R3    R(1,4)                  1.2301         -DE/DX =   -0.0007              !
 ! R4    R(1,5)                  7.9845         -DE/DX =    0.0008              !
 ! A1    A(2,1,3)              125.9528         -DE/DX =   -0.0039              !
 ! A2    A(2,1,4)              116.9106         -DE/DX =    0.0024              !
 ! A3    A(2,1,5)               45.5709         -DE/DX =    0.0026              !
 ! A4    A(3,1,4)              116.1389         -DE/DX =    0.0016              !
 ! A5    A(3,1,5)              147.4911         -DE/DX =   -0.0018              !
 ! A6    A(4,1,5)               86.4568         -DE/DX =   -0.0001              !
 ! D1    D(2,1,4,3)           -169.2666         -DE/DX =    0.0                 !
 ! D2    D(2,1,5,3)             89.5193         -DE/DX =   -0.0005              !
 ! D3    D(2,1,5,4)           -134.0832         -DE/DX =   -0.0005              !
 ! D4    D(3,1,5,4)            136.3975         -DE/DX =    0.0                 !
 --------------------------------------------------------------------------------
 Lowest energy point so far.  Saving SCF results.
 Largest change from initial coordinates is atom    5       7.031 Angstoms.
 GradGradGradGradGradGradGradGradGradGradGradGradGradGradGradGradGradGrad

 Leave Link  103 at Tue Jun 23 22:01:13 2026, MaxMem=  1879048192 cpu:               0.0 elap:               0.0
 (Enter /CH/g16/l202.exe)
                          Input orientation:                          
 ---------------------------------------------------------------------
 Center     Atomic      Atomic             Coordinates (Angstroms)
 Number     Number       Type             X           Y           Z
 ---------------------------------------------------------------------
      1          5           0        0.890082    0.183903   -1.079646
      2          1           0        0.828233   -0.326394    0.031606
      3          1           0        1.901009    0.500073   -1.621178
      4          1           0       -0.164296    0.300577   -1.696349
      5          1           0       -3.455028   -0.658158    4.365566
 ---------------------------------------------------------------------
                    Distance matrix (angstroms):
                    1          2          3          4          5
     1  B    0.000000
     2  H    1.224381   0.000000
     3  H    1.189619   2.136725   0.000000
     4  H    1.227049   2.089028   2.076279   0.000000
     5  H    7.017078   6.102426   8.116018   6.963829   0.000000
 Stoichiometry    BH4(2-,2)
 Framework group  C1[X(BH4)]
 Deg. of freedom     9
 Full point group                 C1      NOp   1
 RotChk:  IX=1 Diff= 1.36D-15
 Largest Abelian subgroup         C1      NOp   1
 Largest concise Abelian subgroup C1      NOp   1
                         Standard orientation:                         
 ---------------------------------------------------------------------
 Center     Atomic      Atomic             Coordinates (Angstroms)
 Number     Number       Type             X           Y           Z
 ---------------------------------------------------------------------
      1          5           0       -0.783936    0.012789    0.001683
      2          1           0        0.182678    0.713964   -0.268723
      3          1           0       -1.869822    0.428933    0.252424
      4          1           0       -0.625883   -1.201939   -0.069769
      5          1           0        6.232708   -0.004901    0.077656
 ---------------------------------------------------------------------
 Rotational constants (GHZ):         219.2981636          10.4072802           9.9939154
 Leave Link  202 at Tue Jun 23 22:01:13 2026, MaxMem=  1879048192 cpu:               0.0 elap:               0.0
 (Enter /CH/g16/l601.exe)
 Copying SCF densities to generalized density rwf, IOpCl= 1 IROHF=0.

 **********************************************************************

            Population analysis using the SCF Density.

 **********************************************************************

 Orbital symmetries:
 Alpha Orbitals:
       Occupied  (A) (A) (A) (A) (A) (A)
       Virtual   (A) (A) (A) (A) (A) (A) (A) (A) (A) (A) (A) (A)
                 (A) (A) (A) (A) (A) (A) (A) (A) (A) (A) (A) (A)
                 (A) (A) (A) (A)
 Beta  Orbitals:
       Occupied  (A) (A) (A) (A) (A)
       Virtual   (A) (A) (A) (A) (A) (A) (A) (A) (A) (A) (A) (A)
                 (A) (A) (A) (A) (A) (A) (A) (A) (A) (A) (A) (A)
                 (A) (A) (A) (A) (A)
 The electronic state is 2-A.
 Alpha  occ. eigenvalues --   -6.64171  -0.42111  -0.26600  -0.25352  -0.14400
 Alpha  occ. eigenvalues --   -0.08048
 Alpha virt. eigenvalues --    0.18856   0.19876   0.20178   0.24332   0.32044
 Alpha virt. eigenvalues --    0.32668   0.37913   0.58571   0.71665   0.72933
 Alpha virt. eigenvalues --    0.75396   1.01567   1.02415   1.35842   1.38407
 Alpha virt. eigenvalues --    1.40877   1.51883   1.56407   1.56407   1.56415
 Alpha virt. eigenvalues --    1.72133   1.89733   1.95011   2.10463   2.15585
 Alpha virt. eigenvalues --    2.51766   2.66564   2.70281
  Beta  occ. eigenvalues --   -6.63446  -0.39758  -0.26113  -0.24871  -0.14400
  Beta virt. eigenvalues --    0.03609   0.19326   0.20559   0.22263   0.26114
  Beta virt. eigenvalues --    0.32503   0.33141   0.43726   0.58571   0.72112
  Beta virt. eigenvalues --    0.74577   0.75737   1.05108   1.06012   1.36282
  Beta virt. eigenvalues --    1.40473   1.44069   1.51567   1.56407   1.56407
  Beta virt. eigenvalues --    1.56415   1.72991   1.91552   1.96902   2.10533
  Beta virt. eigenvalues --    2.15679   2.51883   2.67058   2.70765
          Condensed to atoms (all electrons):
               1          2          3          4          5
     1  B    4.438589   0.419912   0.418301   0.414439   0.000001
     2  H    0.419912   0.740860  -0.029556  -0.034429   0.000000
     3  H    0.418301  -0.029556   0.748834  -0.037172   0.000000
     4  H    0.414439  -0.034429  -0.037172   0.768727  -0.000000
     5  H    0.000001   0.000000   0.000000  -0.000000   1.999997
          Atomic-Atomic Spin Densities.
               1          2          3          4          5
     1  B    1.157847   0.004148   0.003662   0.003699   0.000000
     2  H    0.004148  -0.056486  -0.001988  -0.002323  -0.000000
     3  H    0.003662  -0.001988  -0.054884  -0.002143  -0.000000
     4  H    0.003699  -0.002323  -0.002143  -0.056586  -0.000000
     5  H    0.000000  -0.000000  -0.000000  -0.000000   0.000000
 Mulliken charges and spin densities:
               1          2
     1  B   -0.691242   1.169357
     2  H   -0.096787  -0.056650
     3  H   -0.100408  -0.055353
     4  H   -0.111565  -0.057353
     5  H   -0.999998   0.000000
 Sum of Mulliken charges =  -2.00000   1.00000
 Mulliken charges and spin densities with hydrogens summed into heavy atoms:
               1          2
     1  B   -2.000000   1.000000
 Electronic spatial extent (au):  <R**2>=            351.0398
 Charge=             -2.0000 electrons
 Dipole moment (field-independent basis, Debye):
    X=            -26.2157    Y=              0.0808    Z=             -0.3965  Tot=             26.2189
 Quadrupole moment (field-independent basis, Debye-Ang):
   XX=           -206.3114   YY=            -16.9865   ZZ=            -17.6996
   XY=              0.0858   XZ=             -2.5345   YZ=              0.0055
 Traceless Quadrupole moment (field-independent basis, Debye-Ang):
   XX=           -125.9789   YY=             63.3460   ZZ=             62.6329
   XY=              0.0858   XZ=             -2.5345   YZ=              0.0055
 Octapole moment (field-independent basis, Debye-Ang**2):
  XXX=          -1199.1388  YYY=              0.7464  ZZZ=             -0.7660  XYY=            -12.8688
  XXY=              0.5028  XXZ=            -14.4245  XZZ=            -12.2899  YZZ=             -0.0338
  YYZ=             -0.1561  XYZ=              0.1258
 Hexadecapole moment (field-independent basis, Debye-Ang**3):
 XXXX=          -8198.7192 YYYY=            -40.0522 ZZZZ=            -32.7910 XXXY=              6.9859
 XXXZ=            -95.2551 YYYX=             -0.3794 YYYZ=              0.0193 ZZZX=             -4.4642
 ZZZY=              0.0227 XXYY=           -164.0354 XXZZ=           -164.7624 YYZZ=            -12.1582
 XXYZ=             -0.1094 YYXZ=             -1.5831 ZZXY=              0.0951
 N-N= 7.903128488133D+00 E-N=-8.105760881027D+01  KE= 2.693746930833D+01
                          Isotropic Fermi Contact Couplings
        Atom                 a.u.       MegaHertz       Gauss      10(-4) cm-1
     1  B(11)              0.08132     116.63991      41.62002      38.90688
     2  H(1)              -0.01017     -45.46121     -16.22169     -15.16423
     3  H(1)              -0.00997     -44.58658     -15.90960     -14.87248
     4  H(1)              -0.00981     -43.84550     -15.64517     -14.62529
     5  H(1)               0.00000       0.00133       0.00048       0.00045
 --------------------------------------------------------
       Center         ----  Spin Dipole Couplings  ----
                      3XX-RR        3YY-RR        3ZZ-RR
 --------------------------------------------------------
     1   Atom       -0.159796     -0.194168      0.353965
     2   Atom        0.006233     -0.017614      0.011382
     3   Atom        0.020179     -0.033512      0.013333
     4   Atom       -0.035551      0.027319      0.008232
     5   Atom        0.000821     -0.000422     -0.000399
 --------------------------------------------------------
                        XY            XZ            YZ
 --------------------------------------------------------
     1   Atom       -0.000440      0.140125     -0.001845
     2   Atom        0.030925      0.000369     -0.008642
     3   Atom       -0.022518     -0.000770      0.005187
     4   Atom       -0.008930      0.011653      0.003543
     5   Atom       -0.000001     -0.000018      0.000000
 --------------------------------------------------------


 ---------------------------------------------------------------------------------
              Anisotropic Spin Dipole Couplings in Principal Axis System
 ---------------------------------------------------------------------------------

       Atom             a.u.   MegaHertz   Gauss  10(-4) cm-1        Axes

              Baa    -0.1955   -33.478   -11.946   -11.167  0.9687 -0.0216 -0.2471
     1 B(11)  Bbb    -0.1942   -33.245   -11.863   -11.089  0.0218  0.9998 -0.0022
              Bcc     0.3897    66.723    23.808    22.256  0.2471 -0.0032  0.9690
 
              Baa    -0.0399   -21.284    -7.595    -7.099 -0.5520  0.8216  0.1425
     2 H(1)   Bbb     0.0112     5.958     2.126     1.987  0.3004  0.0365  0.9531
              Bcc     0.0287    15.326     5.469     5.112  0.7779  0.5689 -0.2670
 
              Baa    -0.0421   -22.457    -8.013    -7.491  0.3380  0.9375 -0.0830
     3 H(1)   Bbb     0.0133     7.099     2.533     2.368  0.1813  0.0217  0.9832
              Bcc     0.0288    15.358     5.480     5.123  0.9235 -0.3474 -0.1626
 
              Baa    -0.0398   -21.241    -7.579    -7.085  0.9598  0.1405 -0.2432
     4 H(1)   Bbb     0.0111     5.896     2.104     1.967  0.2546 -0.0703  0.9645
              Bcc     0.0288    15.345     5.476     5.119 -0.1184  0.9876  0.1032
 
              Baa    -0.0004    -0.225    -0.080    -0.075  0.0009  0.9999 -0.0107
     5 H(1)   Bbb    -0.0004    -0.213    -0.076    -0.071  0.0146  0.0107  0.9998
              Bcc     0.0008     0.438     0.156     0.146  0.9999 -0.0010 -0.0146
 

 ---------------------------------------------------------------------------------

 No NMR shielding tensors so no spin-rotation constants.
 Leave Link  601 at Tue Jun 23 22:01:13 2026, MaxMem=  1879048192 cpu:               0.4 elap:               0.1
 (Enter /CH/g16/l9999.exe)


 THE FIRST MORNING OF CREATION WROTE WHAT THE LAST DAWN OF
 RECKONING SHALL READ. -- OMAR KHAYYAM
 Error termination request processed by link 9999.
 Error termination via Lnk1e in /CH/g16/l9999.exe at Tue Jun 23 22:01:13 2026.
 Job cpu time:       0 days  0 hours  3 minutes  7.3 seconds.
 Elapsed time:       0 days  0 hours  0 minutes 29.5 seconds.
 File lengths (MBytes):  RWF=     14 Int=      0 D2E=      0 Chk=      2 Scr=      1
Error: segmentation violation
   rax 0x0000000000000000, rbx 0x0000000041c06dd8, rcx 0x0000152d1eeb552b
   rdx 0x0000000000000000, rsp 0x00007ffeb52b8f48, rbp 0x0000000002f85e30
   rsi 0x000000000000000b, rdi 0x00000000002b65cb, r8  0x0000000380001000
   r9  0x0000000064cd7012, r10 0x0000152d1fba3d70, r11 0x0000000000000206
   r12 0x00007ffeb52b9000, r13 0x00007ffeb52b9078, r14 0x00007ffeb52b9070
   r15 0x0000000041c06df8
  /lib64/libpthread.so.0(+0x12990) [0x152d1f5fd990]
  /lib64/libc.so.6(kill+0xb) [0x152d1eeb552b]
