 Entering Gaussian System, Link 0=/CH/g16/g16
 Initial command:
 /CH/g16/l1.exe "/tmp/g16scr_2843662/Gau-2843664.inp" -scrdir="/tmp/g16scr_2843662/"
 Default is to use a total of  96 processors:
                               96 via shared-memory
                                1 via Linda
 Entering Link 1 = /CH/g16/l1.exe PID=   2843665.
  
 Copyright (c) 1988-2021, Gaussian, Inc.  All Rights Reserved.
  
 This is part of the Gaussian(R) 16 program.  It is based on
 the Gaussian(R) 09 system (copyright 2009, Gaussian, Inc.),
 the Gaussian(R) 03 system (copyright 2003, Gaussian, Inc.),
 the Gaussian(R) 98 system (copyright 1998, Gaussian, Inc.),
 the Gaussian(R) 94 system (copyright 1995, Gaussian, Inc.),
 the Gaussian 92(TM) system (copyright 1992, Gaussian, Inc.),
 the Gaussian 90(TM) system (copyright 1990, Gaussian, Inc.),
 the Gaussian 88(TM) system (copyright 1988, Gaussian, Inc.),
 the Gaussian 86(TM) system (copyright 1986, Carnegie Mellon
 University), and the Gaussian 82(TM) system (copyright 1983,
 Carnegie Mellon University). Gaussian is a federally registered
 trademark of Gaussian, Inc.
  
 This software contains proprietary and confidential information,
 including trade secrets, belonging to Gaussian, Inc.
  
 This software is provided under written license and may be
 used, copied, transmitted, or stored only in accord with that
 written license.
  
 The following legend is applicable only to US Government
 contracts under FAR:
  
                    RESTRICTED RIGHTS LEGEND
  
 Use, reproduction and disclosure by the US Government is
 subject to restrictions as set forth in subparagraphs (a)
 and (c) of the Commercial Computer Software - Restricted
 Rights clause in FAR 52.227-19.
  
 Gaussian, Inc.
 340 Quinnipiac St., Bldg. 40, Wallingford CT 06492
  
  
 ---------------------------------------------------------------
 Warning -- This program may not be used in any manner that
 competes with the business of Gaussian, Inc. or will provide
 assistance to any competitor of Gaussian, Inc.  The licensee
 of this program is prohibited from giving any competitor of
 Gaussian, Inc. access to this program.  By using this program,
 the user acknowledges that Gaussian, Inc. is engaged in the
 business of creating and licensing software in the field of
 computational chemistry and represents and warrants to the
 licensee that it is not a competitor of Gaussian, Inc. and that
 it will not use this program in any manner prohibited above.
 ---------------------------------------------------------------
  

 Cite this work as:
 Gaussian 16, Revision C.02,
 M. J. Frisch, G. W. Trucks, H. B. Schlegel, G. E. Scuseria, 
 M. A. Robb, J. R. Cheeseman, G. Scalmani, V. Barone, 
 G. A. Petersson, H. Nakatsuji, X. Li, M. Caricato, A. V. Marenich, 
 J. Bloino, B. G. Janesko, R. Gomperts, B. Mennucci, H. P. Hratchian, 
 J. V. Ortiz, A. F. Izmaylov, J. L. Sonnenberg, D. Williams-Young, 
 F. Ding, F. Lipparini, F. Egidi, J. Goings, B. Peng, A. Petrone, 
 T. Henderson, D. Ranasinghe, V. G. Zakrzewski, J. Gao, N. Rega, 
 G. Zheng, W. Liang, M. Hada, M. Ehara, K. Toyota, R. Fukuda, 
 J. Hasegawa, M. Ishida, T. Nakajima, Y. Honda, O. Kitao, H. Nakai, 
 T. Vreven, K. Throssell, J. A. Montgomery, Jr., J. E. Peralta, 
 F. Ogliaro, M. J. Bearpark, J. J. Heyd, E. N. Brothers, K. N. Kudin, 
 V. N. Staroverov, T. A. Keith, R. Kobayashi, J. Normand, 
 K. Raghavachari, A. P. Rendell, J. C. Burant, S. S. Iyengar, 
 J. Tomasi, M. Cossi, J. M. Millam, M. Klene, C. Adamo, R. Cammi, 
 J. W. Ochterski, R. L. Martin, K. Morokuma, O. Farkas, 
 J. B. Foresman, and D. J. Fox, Gaussian, Inc., Wallingford CT, 2019.
 
 ******************************************
 Gaussian 16:  ES64L-G16RevC.02  7-Dec-2021
                23-Jun-2026 
 ******************************************
 %chk=BH4m_anion.chk
 %nprocshared=8
 Will use up to    8 processors via shared memory.
 %mem=14GB
 ----------------------------------------------------------------------
 #p B3LYP/def2SVP EmpiricalDispersion=GD3BJ opt freq SCRF=(SMD,Solvent=
 Tetrahydrofuran) int=ultrafine
 ----------------------------------------------------------------------
 1/18=20,19=15,26=6,38=1/1,3;
 2/9=110,12=2,17=6,18=5,40=1/2;
 3/5=43,7=101,11=2,25=1,30=1,70=32201,71=1,72=20,74=-5,75=-5,124=41/1,2,3;
 4//1;
 5/5=2,38=5,53=20/2;
 6/7=2,8=2,9=2,10=2,28=1/1;
 7//1,2,3,16;
 1/18=20,19=15,26=6/3(2);
 2/9=110/2;
 99//99;
 2/9=110/2;
 3/5=43,7=101,11=2,25=1,30=1,70=32205,71=1,72=20,74=-5,75=-5,124=41/1,2,3;
 4/5=5,16=3,69=1/1;
 5/5=2,38=5,53=20/2;
 7//1,2,3,16;
 1/18=20,19=15,26=6/3(-5);
 2/9=110/2;
 6/7=2,8=2,9=2,10=2,19=2,28=1/1;
 99/9=1/99;
 Leave Link    1 at Tue Jun 23 22:00:36 2026, MaxMem=  1879048192 cpu:               0.8 elap:               0.0
 (Enter /CH/g16/l101.exe)
 --------------------------
 BH4m_anion D1 (T19 screen)
 --------------------------
 Symbolic Z-matrix:
 Charge = -1 Multiplicity = 1
 B                     0.        0.        0. 
 H                     0.7159    0.7159    0.7159 
 H                     0.7159   -0.7159   -0.7159 
 H                    -0.7159    0.7159   -0.7159 
 H                    -0.7159   -0.7159    0.7159 
 
 ITRead=  0  0  0  0  0
 MicOpt= -1 -1 -1 -1 -1
 NAtoms=      5 NQM=        5 NQMF=       0 NMMI=      0 NMMIF=      0
                NMic=       0 NMicF=      0.
                    Isotopes and Nuclear Properties:
 (Nuclear quadrupole moments (NQMom) in fm**2, nuclear magnetic moments (NMagM)
  in nuclear magnetons)

  Atom         1           2           3           4           5
 IAtWgt=          11           1           1           1           1
 AtmWgt=  11.0093053   1.0078250   1.0078250   1.0078250   1.0078250
 NucSpn=           3           1           1           1           1
 AtZEff=  -0.0000000  -0.0000000  -0.0000000  -0.0000000  -0.0000000
 NQMom=    4.0590000   0.0000000   0.0000000   0.0000000   0.0000000
 NMagM=    2.6886370   2.7928460   2.7928460   2.7928460   2.7928460
 AtZNuc=   5.0000000   1.0000000   1.0000000   1.0000000   1.0000000
 Leave Link  101 at Tue Jun 23 22:00:36 2026, MaxMem=  1879048192 cpu:               0.3 elap:               0.3
 (Enter /CH/g16/l103.exe)

 GradGradGradGradGradGradGradGradGradGradGradGradGradGradGradGradGradGrad
 Berny optimization.
 Initialization pass.
                           ----------------------------
                           !    Initial Parameters    !
                           ! (Angstroms and Degrees)  !
 --------------------------                            --------------------------
 ! Name  Definition              Value          Derivative Info.                !
 --------------------------------------------------------------------------------
 ! R1    R(1,2)                  1.24           estimate D2E/DX2                !
 ! R2    R(1,3)                  1.24           estimate D2E/DX2                !
 ! R3    R(1,4)                  1.24           estimate D2E/DX2                !
 ! R4    R(1,5)                  1.24           estimate D2E/DX2                !
 ! A1    A(2,1,3)              109.4712         estimate D2E/DX2                !
 ! A2    A(2,1,4)              109.4712         estimate D2E/DX2                !
 ! A3    A(2,1,5)              109.4712         estimate D2E/DX2                !
 ! A4    A(3,1,4)              109.4712         estimate D2E/DX2                !
 ! A5    A(3,1,5)              109.4712         estimate D2E/DX2                !
 ! A6    A(4,1,5)              109.4712         estimate D2E/DX2                !
 ! D1    D(2,1,4,3)            120.0            estimate D2E/DX2                !
 ! D2    D(2,1,5,3)           -120.0            estimate D2E/DX2                !
 ! D3    D(2,1,5,4)            120.0            estimate D2E/DX2                !
 ! D4    D(3,1,5,4)           -120.0            estimate D2E/DX2                !
 --------------------------------------------------------------------------------
 Trust Radius=3.00D-01 FncErr=5.00D-06 GrdErr=5.00D-06 EigMax=2.50D+02 EigMin=1.00D-04
 Number of steps in this run=     24 maximum allowed number of steps=    100.
 GradGradGradGradGradGradGradGradGradGradGradGradGradGradGradGradGradGrad

 Leave Link  103 at Tue Jun 23 22:00:36 2026, MaxMem=  1879048192 cpu:               0.0 elap:               0.0
 (Enter /CH/g16/l202.exe)
                          Input orientation:                          
 ---------------------------------------------------------------------
 Center     Atomic      Atomic             Coordinates (Angstroms)
 Number     Number       Type             X           Y           Z
 ---------------------------------------------------------------------
      1          5           0        0.000000    0.000000    0.000000
      2          1           0        0.715900    0.715900    0.715900
      3          1           0        0.715900   -0.715900   -0.715900
      4          1           0       -0.715900    0.715900   -0.715900
      5          1           0       -0.715900   -0.715900    0.715900
 ---------------------------------------------------------------------
                    Distance matrix (angstroms):
                    1          2          3          4          5
     1  B    0.000000
     2  H    1.239975   0.000000
     3  H    1.239975   2.024871   0.000000
     4  H    1.239975   2.024871   2.024871   0.000000
     5  H    1.239975   2.024871   2.024871   2.024871   0.000000
 Stoichiometry    BH4(1-)
 Framework group  TD[O(B),4C3(H)]
 Deg. of freedom     1
 Full point group                 TD      NOp  24
 Largest Abelian subgroup         D2      NOp   4
 Largest concise Abelian subgroup D2      NOp   4
                         Standard orientation:                         
 ---------------------------------------------------------------------
 Center     Atomic      Atomic             Coordinates (Angstroms)
 Number     Number       Type             X           Y           Z
 ---------------------------------------------------------------------
      1          5           0        0.000000    0.000000    0.000000
      2          1           0        0.715900    0.715900    0.715900
      3          1           0       -0.715900   -0.715900    0.715900
      4          1           0        0.715900   -0.715900   -0.715900
      5          1           0       -0.715900    0.715900   -0.715900
 ---------------------------------------------------------------------
 Rotational constants (GHZ):         122.3030661         122.3030661         122.3030661
 Leave Link  202 at Tue Jun 23 22:00:36 2026, MaxMem=  1879048192 cpu:               0.0 elap:               0.0
 (Enter /CH/g16/l301.exe)
 Standard basis: def2SVP (5D, 7F)
 Ernie: Thresh=  0.10000D-02 Tol=  0.10000D-05 Strict=F.
 There are    11 symmetry adapted cartesian basis functions of A   symmetry.
 There are     8 symmetry adapted cartesian basis functions of B1  symmetry.
 There are     8 symmetry adapted cartesian basis functions of B2  symmetry.
 There are     8 symmetry adapted cartesian basis functions of B3  symmetry.
 There are    10 symmetry adapted basis functions of A   symmetry.
 There are     8 symmetry adapted basis functions of B1  symmetry.
 There are     8 symmetry adapted basis functions of B2  symmetry.
 There are     8 symmetry adapted basis functions of B3  symmetry.
    34 basis functions,    53 primitive gaussians,    35 cartesian basis functions
     5 alpha electrons        5 beta electrons
       nuclear repulsion energy        10.1033195786 Hartrees.
 IExCor=  402 DFT=T Ex+Corr=B3LYP ExCW=0 ScaHFX=  0.200000
 ScaDFX=  0.800000  0.720000  1.000000  0.810000 ScalE2=  1.000000  1.000000
 IRadAn=      5 IRanWt=     -1 IRanGd=            0 ICorTp=0 IEmpDi=141
 NAtoms=    5 NActive=    5 NUniq=    2 SFac= 4.00D+00 NAtFMM=   60 NAOKFM=F Big=F
 Integral buffers will be    131072 words long.
 Raffenetti 2 integral format.
 Two-electron integral symmetry is turned on.
 R6Disp:  Grimme-D3(BJ) Dispersion energy=       -0.0020996498 Hartrees.
 Nuclear repulsion after empirical dispersion term =       10.1012199288 Hartrees.
 ------------------------------------------------------------------------------
 Polarizable Continuum Model (PCM)
 =================================
 Model                : PCM.
 Atomic radii         : SMD-Coulomb.
 Polarization charges : Total charges.
 Charge compensation  : None.
 Solution method      : On-the-fly selection.
 Cavity type          : VdW (van der Waals Surface) (Alpha=1.000).
 Cavity algorithm     : GePol (No added spheres)
                        Default sphere list used, NSphG=    5.
                        Lebedev-Laikov grids with approx.  5.0 points / Ang**2.
                        Smoothing algorithm: York/Karplus (Gamma=1.0000).
                        Polarization charges: spherical gaussians, with
                                              point-specific exponents (IZeta= 3).
                        Self-potential: point-specific (ISelfS= 7).
                        Self-field    : sphere-specific E.n sum rule (ISelfD= 2).
 1st derivatives      : Analytical E(r).r(x)/FMM algorithm (CHGder, D1EAlg=3).
                        Cavity 1st derivative terms included.
 Solvent              : TetraHydroFuran, Eps=   7.425700 Eps(inf)=   1.974025
 ------------------------------------------------------------------------------
 Spheres list:
 ISph  on   Nord     Re0    Alpha      Xe            Ye            Ze
    1   B      1    1.8000  1.000      0.000000      0.000000      0.000000
    2   H      2    1.2000  1.000      0.715900      0.715900      0.715900
    3   H      3    1.2000  1.000     -0.715900     -0.715900      0.715900
    4   H      4    1.2000  1.000      0.715900     -0.715900     -0.715900
    5   H      5    1.2000  1.000     -0.715900      0.715900     -0.715900
 ------------------------------------------------------------------------------
 GePol: Number of generator spheres                  =       5
 GePol: Total number of spheres                      =       5
 GePol: Number of exposed spheres                    =       5 (100.00%)
 GePol: Number of points                             =     434
 GePol: Average weight of points                     =       0.12
 GePol: Minimum weight of points                     =   0.14D-02
 GePol: Maximum weight of points                     =    0.17992
 GePol: Number of points with low weight             =       0
 GePol: Fraction of low-weight points (<1% of avg)   =       0.00%
 GePol: Cavity surface area                          =     53.629 Ang**2
 GePol: Cavity volume                                =     32.940 Ang**3
 ------------------------------------------------------------------------------
 Atomic radii for non-electrostatic terms: SMD-CDS.
 ------------------------------------------------------------------------------
 PCM non-electrostatic energy =         0.0016849289 Hartrees.
 Nuclear repulsion after PCM non-electrostatic terms =       10.1029048578 Hartrees.
 Leave Link  301 at Tue Jun 23 22:00:36 2026, MaxMem=  1879048192 cpu:               0.0 elap:               0.0
 (Enter /CH/g16/l302.exe)
 NPDir=0 NMtPBC=     1 NCelOv=     1 NCel=       1 NClECP=     1 NCelD=      1
         NCelK=      1 NCelE2=     1 NClLst=     1 CellRange=     0.0.
 One-electron integrals computed using PRISM.
 One-electron integral symmetry used in STVInt
  24 Symmetry operations used in ECPInt.
 ECPInt:  NShTT=     171 NPrTT=     553 LenC2=     172 LenP2D=     539.
 LDataN:  DoStor=T MaxTD1= 4 Len=   56
 NBasis=    34 RedAO= T EigKep=  5.62D-03  NBF=    10     8     8     8
 NBsUse=    34 1.00D-06 EigRej= -1.00D+00 NBFU=    10     8     8     8
 Precomputing XC quadrature grid using
 IXCGrd= 4 IRadAn=           5 IRanWt=          -1 IRanGd=           0 AccXCQ= 0.00D+00.
 Generated NRdTot=       0 NPtTot=           0 NUsed=           0 NTot=          32
 NSgBfM=    35    35    35    35    35 MxSgAt=     5 MxSgA2=     5.
 Leave Link  302 at Tue Jun 23 22:00:36 2026, MaxMem=  1879048192 cpu:               0.2 elap:               0.1
 (Enter /CH/g16/l303.exe)
 DipDrv:  MaxL=1.
 Leave Link  303 at Tue Jun 23 22:00:36 2026, MaxMem=  1879048192 cpu:               0.0 elap:               0.0
 (Enter /CH/g16/l401.exe)
 ExpMin= 8.36D-02 ExpMax= 8.39D+02 ExpMxC= 1.26D+02 IAcc=3 IRadAn=         5 AccDes= 0.00D+00
 Harris functional with IExCor=  402 and IRadAn=       5 diagonalized for initial guess.
 HarFok:  IExCor=  402 AccDes= 0.00D+00 IRadAn=         5 IDoV= 1 UseB2=F ITyADJ=14
 ICtDFT=  3500011 ScaDFX=  1.000000  1.000000  1.000000  1.000000
 FoFCou: FMM=F IPFlag=           0 FMFlag=      100000 FMFlg1=           0
         NFxFlg=           0 DoJE=T BraDBF=F KetDBF=T FulRan=T
         wScrn=  0.000000 ICntrl=       500 IOpCl=  0 I1Cent=   200000004 NGrid=           0
         NMat0=    1 NMatS0=      1 NMatT0=    0 NMatD0=    1 NMtDS0=    0 NMtDT0=    0
 Petite list used in FoFCou.
 Harris En= -27.4680340533148    
 JPrj=0 DoOrth=F DoCkMO=F.
 Initial guess orbital symmetries:
       Occupied  (A1) (A1) (T2) (T2) (T2)
       Virtual   (T2) (T2) (T2) (A1) (T2) (T2) (T2) (A1) (T2) (T2)
                 (T2) (A1) (E) (E) (T2) (T2) (T2) (T1) (T1) (T1)
                 (T2) (T2) (T2) (E) (E) (A1) (T2) (T2) (T2)
 The electronic state of the initial guess is 1-A1.
 Leave Link  401 at Tue Jun 23 22:00:37 2026, MaxMem=  1879048192 cpu:               0.4 elap:               0.1
 (Enter /CH/g16/l502.exe)
 Keep R1 ints in memory in symmetry-blocked form, NReq=7092481.
 FoFCou: FMM=F IPFlag=           0 FMFlag=           0 FMFlg1=           0
         NFxFlg=           0 DoJE=F BraDBF=F KetDBF=F FulRan=T
         wScrn=  0.000000 ICntrl=       600 IOpCl=  0 I1Cent=           0 NGrid=           0
         NMat0=    1 NMatS0=    595 NMatT0=    0 NMatD0=    1 NMtDS0=    0 NMtDT0=    0
 Petite list used in FoFCou.
 Closed shell SCF:
 Using DIIS extrapolation, IDIIS=  1040.
 NGot=  1879048192 LenX=  1878997545 LenY=  1878995879
 Requested convergence on RMS density matrix=1.00D-08 within 128 cycles.
 Requested convergence on MAX density matrix=1.00D-06.
 Requested convergence on             energy=1.00D-06.
 No special actions if energy rises.

 Cycle   1  Pass 1  IDiag  1:
 Inv3:  Mode=1 IEnd=      565068.
 Iteration    1 A*A^-1 deviation from unit magnitude is 3.77D-15 for    189.
 Iteration    1 A*A^-1 deviation from orthogonality  is 1.78D-15 for    364    205.
 Iteration    1 A^-1*A deviation from unit magnitude is 3.66D-15 for    189.
 Iteration    1 A^-1*A deviation from orthogonality  is 1.55D-15 for    335    216.
 E= -27.2195655820456    
 DIIS: error= 4.66D-02 at cycle   1 NSaved=   1.
 NSaved= 1 IEnMin= 1 EnMin= -27.2195655820456     IErMin= 1 ErrMin= 4.66D-02
 ErrMax= 4.66D-02  0.00D+00 EMaxC= 1.00D-01 BMatC= 6.09D-02 BMatP= 6.09D-02
 IDIUse=3 WtCom= 5.34D-01 WtEn= 4.66D-01
 Coeff-Com:  0.100D+01
 Coeff-En:   0.100D+01
 Coeff:      0.100D+01
 Gap=     0.386 Goal=   None    Shift=    0.000
 GapD=    0.386 DampG=1.000 DampE=0.500 DampFc=0.5000 IDamp=-1.
 Damping current iteration by 5.00D-01
 RMSDP=1.79D-02 MaxDP=2.01D-01              OVMax= 2.21D-01

 Cycle   2  Pass 1  IDiag  1:
 E= -27.2794894363577     Delta-E=       -0.059923854312 Rises=F Damp=T
 DIIS: error= 6.64D-03 at cycle   2 NSaved=   2.
 NSaved= 2 IEnMin= 2 EnMin= -27.2794894363577     IErMin= 2 ErrMin= 6.64D-03
 ErrMax= 6.64D-03  0.00D+00 EMaxC= 1.00D-01 BMatC= 1.20D-03 BMatP= 6.09D-02
 IDIUse=3 WtCom= 9.34D-01 WtEn= 6.64D-02
 Coeff-Com: -0.425D-01 0.104D+01
 Coeff-En:   0.000D+00 0.100D+01
 Coeff:     -0.397D-01 0.104D+01
 Gap=     0.417 Goal=   None    Shift=    0.000
 RMSDP=2.54D-03 MaxDP=1.70D-02 DE=-5.99D-02 OVMax= 9.67D-02

 Cycle   3  Pass 1  IDiag  1:
 E= -27.3339595495707     Delta-E=       -0.054470113213 Rises=F Damp=F
 DIIS: error= 6.75D-04 at cycle   3 NSaved=   3.
 NSaved= 3 IEnMin= 3 EnMin= -27.3339595495707     IErMin= 3 ErrMin= 6.75D-04
 ErrMax= 6.75D-04  0.00D+00 EMaxC= 1.00D-01 BMatC= 1.34D-05 BMatP= 1.20D-03
 IDIUse=3 WtCom= 9.93D-01 WtEn= 6.75D-03
 Coeff-Com:  0.123D-01 0.117D-01 0.976D+00
 Coeff-En:   0.000D+00 0.000D+00 0.100D+01
 Coeff:      0.122D-01 0.117D-01 0.976D+00
 Gap=     0.422 Goal=   None    Shift=    0.000
 RMSDP=1.63D-04 MaxDP=1.33D-03 DE=-5.45D-02 OVMax= 1.73D-03

 Cycle   4  Pass 1  IDiag  1:
 E= -27.3339827499211     Delta-E=       -0.000023200350 Rises=F Damp=F
 DIIS: error= 3.17D-05 at cycle   4 NSaved=   4.
 NSaved= 4 IEnMin= 4 EnMin= -27.3339827499211     IErMin= 4 ErrMin= 3.17D-05
 ErrMax= 3.17D-05  0.00D+00 EMaxC= 1.00D-01 BMatC= 3.69D-08 BMatP= 1.34D-05
 IDIUse=1 WtCom= 1.00D+00 WtEn= 0.00D+00
 Coeff-Com:  0.760D-03-0.528D-02 0.163D-01 0.988D+00
 Coeff:      0.760D-03-0.528D-02 0.163D-01 0.988D+00
 Gap=     0.422 Goal=   None    Shift=    0.000
 RMSDP=7.87D-06 MaxDP=9.17D-05 DE=-2.32D-05 OVMax= 8.28D-05

 Cycle   5  Pass 1  IDiag  1:
 E= -27.3339827993220     Delta-E=       -0.000000049401 Rises=F Damp=F
 DIIS: error= 2.49D-06 at cycle   5 NSaved=   5.
 NSaved= 5 IEnMin= 5 EnMin= -27.3339827993220     IErMin= 5 ErrMin= 2.49D-06
 ErrMax= 2.49D-06  0.00D+00 EMaxC= 1.00D-01 BMatC= 1.79D-10 BMatP= 3.69D-08
 IDIUse=1 WtCom= 1.00D+00 WtEn= 0.00D+00
 Coeff-Com: -0.793D-04 0.445D-03-0.489D-02-0.280D-01 0.103D+01
 Coeff:     -0.793D-04 0.445D-03-0.489D-02-0.280D-01 0.103D+01
 Gap=     0.422 Goal=   None    Shift=    0.000
 RMSDP=8.64D-07 MaxDP=6.99D-06 DE=-4.94D-08 OVMax= 6.84D-06

 Cycle   6  Pass 1  IDiag  1:
 E= -27.3339827996160     Delta-E=       -0.000000000294 Rises=F Damp=F
 DIIS: error= 1.90D-07 at cycle   6 NSaved=   6.
 NSaved= 6 IEnMin= 6 EnMin= -27.3339827996160     IErMin= 6 ErrMin= 1.90D-07
 ErrMax= 1.90D-07  0.00D+00 EMaxC= 1.00D-01 BMatC= 9.47D-13 BMatP= 1.79D-10
 IDIUse=1 WtCom= 1.00D+00 WtEn= 0.00D+00
 Coeff-Com: -0.404D-05 0.178D-04-0.191D-03-0.313D-02 0.809D-01 0.922D+00
 Coeff:     -0.404D-05 0.178D-04-0.191D-03-0.313D-02 0.809D-01 0.922D+00
 Gap=     0.422 Goal=   None    Shift=    0.000
 RMSDP=4.24D-08 MaxDP=4.58D-07 DE=-2.94D-10 OVMax= 4.84D-07

 Cycle   7  Pass 1  IDiag  1:
 E= -27.3339827996177     Delta-E=       -0.000000000002 Rises=F Damp=F
 DIIS: error= 9.11D-09 at cycle   7 NSaved=   7.
 NSaved= 7 IEnMin= 7 EnMin= -27.3339827996177     IErMin= 7 ErrMin= 9.11D-09
 ErrMax= 9.11D-09  0.00D+00 EMaxC= 1.00D-01 BMatC= 2.41D-15 BMatP= 9.47D-13
 IDIUse=1 WtCom= 1.00D+00 WtEn= 0.00D+00
 Coeff-Com:  0.227D-07 0.223D-06 0.574D-05 0.172D-03-0.650D-02-0.153D+00
 Coeff-Com:  0.116D+01
 Coeff:      0.227D-07 0.223D-06 0.574D-05 0.172D-03-0.650D-02-0.153D+00
 Coeff:      0.116D+01
 Gap=     0.422 Goal=   None    Shift=    0.000
 RMSDP=7.15D-09 MaxDP=6.14D-08 DE=-1.73D-12 OVMax= 3.87D-08

 Error on total polarization charges =  0.06159
 SCF Done:  E(RB3LYP) =  -27.3339827996     A.U. after    7 cycles
            NFock=  7  Conv=0.71D-08     -V/T= 2.0193
 KE= 2.681740885108D+01 PE=-8.461134524425D+01 EE= 2.035704873580D+01
 SMD-CDS (non-electrostatic) energy       (kcal/mol) =       1.06
 (included in total energy above)
 Leave Link  502 at Tue Jun 23 22:00:37 2026, MaxMem=  1879048192 cpu:               2.5 elap:               0.4
 (Enter /CH/g16/l601.exe)
 Copying SCF densities to generalized density rwf, IOpCl= 0 IROHF=0.

 **********************************************************************

            Population analysis using the SCF Density.

 **********************************************************************

 Orbital symmetries:
       Occupied  (A1) (A1) (T2) (T2) (T2)
       Virtual   (T2) (T2) (T2) (A1) (T2) (T2) (T2) (A1) (T2) (T2)
                 (T2) (A1) (E) (E) (T2) (T2) (T2) (T1) (T1) (T1)
                 (T2) (T2) (T2) (E) (E) (A1) (T2) (T2) (T2)
 The electronic state is 1-A1.
 Alpha  occ. eigenvalues --   -6.64282  -0.44219  -0.25057  -0.25057  -0.25057
 Alpha virt. eigenvalues --    0.17120   0.17120   0.17120   0.21995   0.32383
 Alpha virt. eigenvalues --    0.32383   0.32383   0.34199   0.69016   0.69016
 Alpha virt. eigenvalues --    0.69016   0.84199   0.96880   0.96880   1.47808
 Alpha virt. eigenvalues --    1.47808   1.47808   1.53252   1.53252   1.53252
 Alpha virt. eigenvalues --    1.96625   1.96625   1.96625   2.22397   2.22397
 Alpha virt. eigenvalues --    2.46449   2.55684   2.55684   2.55684
          Condensed to atoms (all electrons):
               1          2          3          4          5
     1  B    3.813627   0.412985   0.412985   0.412985   0.412985
     2  H    0.412985   0.817940  -0.032439  -0.032439  -0.032439
     3  H    0.412985  -0.032439   0.817940  -0.032439  -0.032439
     4  H    0.412985  -0.032439  -0.032439   0.817940  -0.032439
     5  H    0.412985  -0.032439  -0.032439  -0.032439   0.817940
 Mulliken charges:
               1
     1  B   -0.465566
     2  H   -0.133608
     3  H   -0.133608
     4  H   -0.133608
     5  H   -0.133608
 Sum of Mulliken charges =  -1.00000
 Mulliken charges with hydrogens summed into heavy atoms:
               1
     1  B   -1.000000
 Electronic spatial extent (au):  <R**2>=             53.6598
 Charge=             -1.0000 electrons
 Dipole moment (field-independent basis, Debye):
    X=              0.0000    Y=              0.0000    Z=             -0.0000  Tot=              0.0000
 Quadrupole moment (field-independent basis, Debye-Ang):
   XX=            -14.2113   YY=            -14.2113   ZZ=            -14.2113
   XY=             -0.0000   XZ=              0.0000   YZ=              0.0000
 Traceless Quadrupole moment (field-independent basis, Debye-Ang):
   XX=             -0.0000   YY=              0.0000   ZZ=              0.0000
   XY=             -0.0000   XZ=              0.0000   YZ=              0.0000
 Octapole moment (field-independent basis, Debye-Ang**2):
  XXX=             -0.0000  YYY=              0.0000  ZZZ=             -0.0000  XYY=             -0.0000
  XXY=             -0.0000  XXZ=             -0.0000  XZZ=             -0.0000  YZZ=             -0.0000
  YYZ=             -0.0000  XYZ=             -1.1721
 Hexadecapole moment (field-independent basis, Debye-Ang**3):
 XXXX=            -35.0705 YYYY=            -35.0705 ZZZZ=            -35.0705 XXXY=             -0.0000
 XXXZ=             -0.0000 YYYX=             -0.0000 YYYZ=              0.0000 ZZZX=             -0.0000
 ZZZY=              0.0000 XXYY=            -11.9306 XXZZ=            -11.9306 YYZZ=            -11.9306
 XXYZ=              0.0000 YYXZ=              0.0000 ZZXY=              0.0000
 N-N= 1.010290485775D+01 E-N=-8.461134507095D+01  KE= 2.681740885108D+01
 Symmetry A    KE= 2.306558615530D+01
 Symmetry B1   KE= 1.250607565260D+00
 Symmetry B2   KE= 1.250607565260D+00
 Symmetry B3   KE= 1.250607565260D+00
 No NMR shielding tensors so no spin-rotation constants.
 Leave Link  601 at Tue Jun 23 22:00:37 2026, MaxMem=  1879048192 cpu:               0.2 elap:               0.0
 (Enter /CH/g16/l701.exe)
 ... and contract with generalized density number  0.
 Compute integral first derivatives.
 R6Disp: Adding Grimme-D3(BJ) dispersion energy 1st derivatives to the gradient.
  24 Symmetry operations used in ECPInt.
 ECPInt:  NShTT=     171 NPrTT=     553 LenC2=     172 LenP2D=     539.
 LDataN:  DoStor=T MaxTD1= 5 Len=  102
 D1PCM: PCM CHGder 1st derivatives, ID1Alg=3 FixD1E=F DoIter=F DoCFld=F I1PDM=0.
 GePol: Maximum number of non-zero 1st derivatives   =     274
 Leave Link  701 at Tue Jun 23 22:00:37 2026, MaxMem=  1879048192 cpu:               1.1 elap:               0.2
 (Enter /CH/g16/l702.exe)
 L702 exits ... SP integral derivatives will be done elsewhere.
 Leave Link  702 at Tue Jun 23 22:00:37 2026, MaxMem=  1879048192 cpu:               0.0 elap:               0.0
 (Enter /CH/g16/l703.exe)
 Integral derivatives from FoFJK, PRISM(SPDF).
 Compute integral first derivatives, UseDBF=F ICtDFT=           0.
 Calling FoFJK, ICntrl=      2127 FMM=F ISym2X=1 I1Cent= 0 IOpClX= 0 NMat=1 NMatS=1 NMatT=0.
 FoFJK:  IHMeth= 1 ICntrl=    2127 DoSepK=F KAlg= 0 I1Cent=           0 FoldK=F
 IRaf=         0 NMat=       1 IRICut=       1 DoRegI=T DoRafI=F ISym2E= 1 IDoP0=0 IntGTp=1.
 FoFCou: FMM=F IPFlag=           0 FMFlag=      100000 FMFlg1=         800
         NFxFlg=           0 DoJE=F BraDBF=F KetDBF=F FulRan=T
         wScrn=  0.000000 ICntrl=      2127 IOpCl=  0 I1Cent=           0 NGrid=           0
         NMat0=    1 NMatS0=      1 NMatT0=    0 NMatD0=    1 NMtDS0=    0 NMtDT0=    0
 Petite list used in FoFCou.
 Leave Link  703 at Tue Jun 23 22:00:37 2026, MaxMem=  1879048192 cpu:               0.4 elap:               0.1
 (Enter /CH/g16/l716.exe)
 Dipole        = 0.00000000D+00 0.00000000D+00-4.44089210D-16
 ***** Axes restored to original set *****
 -------------------------------------------------------------------
 Center     Atomic                   Forces (Hartrees/Bohr)
 Number     Number              X              Y              Z
 -------------------------------------------------------------------
      1        5           0.000000000   -0.000000000   -0.000000000
      2        1           0.000462319    0.000462319    0.000462319
      3        1           0.000462319   -0.000462319   -0.000462319
      4        1          -0.000462319    0.000462319   -0.000462319
      5        1          -0.000462319   -0.000462319    0.000462319
 -------------------------------------------------------------------
 Cartesian Forces:  Max     0.000462319 RMS     0.000413510
 Leave Link  716 at Tue Jun 23 22:00:37 2026, MaxMem=  1879048192 cpu:               0.0 elap:               0.0
 (Enter /CH/g16/l103.exe)

 GradGradGradGradGradGradGradGradGradGradGradGradGradGradGradGradGradGrad
 Berny optimization.
 FormGI is forming the generalized inverse of G from B-inverse, IUseBI=4.
 Internal  Forces:  Max     0.000800759 RMS     0.000428024
 Search for a local minimum.
 Step number   1 out of a maximum of   24
 All quantities printed in internal units (Hartrees-Bohrs-Radians)
 RMS Force = .42802D-03 SwitMx=.10000D-02 MixMth= 2
 Mixed Optimization -- En-DIIS/RFO-DIIS
 Second derivative matrix not updated -- first step.
 The second derivative matrix:
                          R1        R2        R3        R4        A1
           R1           0.21963
           R2           0.00000   0.21963
           R3           0.00000   0.00000   0.21963
           R4           0.00000   0.00000   0.00000   0.21963
           A1           0.00000   0.00000   0.00000   0.00000   0.16000
           A2           0.00000   0.00000   0.00000   0.00000   0.00000
           A3           0.00000   0.00000   0.00000   0.00000   0.00000
           A4           0.00000   0.00000   0.00000   0.00000   0.00000
           A5           0.00000   0.00000   0.00000   0.00000   0.00000
           A6           0.00000   0.00000   0.00000   0.00000   0.00000
           D1           0.00000   0.00000   0.00000   0.00000   0.00000
           D2           0.00000   0.00000   0.00000   0.00000   0.00000
           D3           0.00000   0.00000   0.00000   0.00000   0.00000
           D4           0.00000   0.00000   0.00000   0.00000   0.00000
                          A2        A3        A4        A5        A6
           A2           0.16000
           A3           0.00000   0.16000
           A4           0.00000   0.00000   0.16000
           A5           0.00000   0.00000   0.00000   0.16000
           A6           0.00000   0.00000   0.00000   0.00000   0.16000
           D1           0.00000   0.00000   0.00000   0.00000   0.00000
           D2           0.00000   0.00000   0.00000   0.00000   0.00000
           D3           0.00000   0.00000   0.00000   0.00000   0.00000
           D4           0.00000   0.00000   0.00000   0.00000   0.00000
                          D1        D2        D3        D4
           D1           0.00230
           D2           0.00000   0.00230
           D3           0.00000   0.00000   0.00230
           D4           0.00000   0.00000   0.00000   0.00230
 ITU=  0
     Eigenvalues ---    0.05082   0.05715   0.08641   0.16000   0.16000
     Eigenvalues ---    0.21963   0.21963   0.21963   0.21963
 RFO step:  Lambda=-1.16779982D-05 EMin= 5.08230769D-02
 Linear search not attempted -- first point.
 Iteration  1 RMS(Cart)=  0.00194872 RMS(Int)=  0.00000000
 Iteration  2 RMS(Cart)=  0.00000000 RMS(Int)=  0.00000000
 ITry= 1 IFail=0 DXMaxC= 2.10D-03 DCOld= 1.00D+10 DXMaxT= 3.00D-01 DXLimC= 3.00D+00 Rises=F
 ClnCor:  largest displacement from symmetrization is 8.10D-15 for atom     4.
 Variable       Old X    -DE/DX   Delta X   Delta X   Delta X     New X
                                 (Linear)    (Quad)   (Total)
    R1        2.34321   0.00080   0.00000   0.00365   0.00365   2.34686
    R2        2.34321   0.00080   0.00000   0.00365   0.00365   2.34686
    R3        2.34321   0.00080   0.00000   0.00365   0.00365   2.34686
    R4        2.34321   0.00080   0.00000   0.00365   0.00365   2.34686
    A1        1.91063   0.00000   0.00000   0.00000   0.00000   1.91063
    A2        1.91063   0.00000   0.00000   0.00000  -0.00000   1.91063
    A3        1.91063  -0.00000   0.00000  -0.00000   0.00000   1.91063
    A4        1.91063   0.00000   0.00000   0.00000   0.00000   1.91063
    A5        1.91063  -0.00000   0.00000  -0.00000  -0.00000   1.91063
    A6        1.91063   0.00000   0.00000   0.00000   0.00000   1.91063
    D1        2.09440   0.00000   0.00000   0.00000   0.00000   2.09440
    D2       -2.09440   0.00000   0.00000   0.00000   0.00000  -2.09440
    D3        2.09440   0.00000   0.00000   0.00000   0.00000   2.09440
    D4       -2.09440  -0.00000   0.00000  -0.00000   0.00000  -2.09440
         Item               Value     Threshold  Converged?
 Maximum Force            0.000801     0.000450     NO 
 RMS     Force            0.000428     0.000300     NO 
 Maximum Displacement     0.002105     0.001800     NO 
 RMS     Displacement     0.001949     0.001200     NO 
 Predicted change in Energy=-5.838999D-06
 Lowest energy point so far.  Saving SCF results.
 GradGradGradGradGradGradGradGradGradGradGradGradGradGradGradGradGradGrad

 Leave Link  103 at Tue Jun 23 22:00:37 2026, MaxMem=  1879048192 cpu:               0.0 elap:               0.0
 (Enter /CH/g16/l202.exe)
                          Input orientation:                          
 ---------------------------------------------------------------------
 Center     Atomic      Atomic             Coordinates (Angstroms)
 Number     Number       Type             X           Y           Z
 ---------------------------------------------------------------------
      1          5           0       -0.000000    0.000000    0.000000
      2          1           0        0.717014    0.717014    0.717014
      3          1           0        0.717014   -0.717014   -0.717014
      4          1           0       -0.717014    0.717014   -0.717014
      5          1           0       -0.717014   -0.717014    0.717014
 ---------------------------------------------------------------------
                    Distance matrix (angstroms):
                    1          2          3          4          5
     1  B    0.000000
     2  H    1.241904   0.000000
     3  H    1.241904   2.028021   0.000000
     4  H    1.241904   2.028021   2.028021   0.000000
     5  H    1.241904   2.028021   2.028021   2.028021   0.000000
 Stoichiometry    BH4(1-)
 Framework group  TD[O(B),4C3(H)]
 Deg. of freedom     1
 Full point group                 TD      NOp  24
 RotChk:  IX=0 Diff= 6.85D-16
 Largest Abelian subgroup         D2      NOp   4
 Largest concise Abelian subgroup D2      NOp   4
                         Standard orientation:                         
 ---------------------------------------------------------------------
 Center     Atomic      Atomic             Coordinates (Angstroms)
 Number     Number       Type             X           Y           Z
 ---------------------------------------------------------------------
      1          5           0        0.000000    0.000000    0.000000
      2          1           0        0.717014    0.717014    0.717014
      3          1           0       -0.717014   -0.717014    0.717014
      4          1           0        0.717014   -0.717014   -0.717014
      5          1           0       -0.717014    0.717014   -0.717014
 ---------------------------------------------------------------------
 Rotational constants (GHZ):         121.9233787         121.9233787         121.9233787
 Leave Link  202 at Tue Jun 23 22:00:37 2026, MaxMem=  1879048192 cpu:               0.0 elap:               0.0
 (Enter /CH/g16/l301.exe)
 Standard basis: def2SVP (5D, 7F)
 Ernie: Thresh=  0.10000D-02 Tol=  0.10000D-05 Strict=F.
 There are    11 symmetry adapted cartesian basis functions of A   symmetry.
 There are     8 symmetry adapted cartesian basis functions of B1  symmetry.
 There are     8 symmetry adapted cartesian basis functions of B2  symmetry.
 There are     8 symmetry adapted cartesian basis functions of B3  symmetry.
 There are    10 symmetry adapted basis functions of A   symmetry.
 There are     8 symmetry adapted basis functions of B1  symmetry.
 There are     8 symmetry adapted basis functions of B2  symmetry.
 There are     8 symmetry adapted basis functions of B3  symmetry.
    34 basis functions,    53 primitive gaussians,    35 cartesian basis functions
     5 alpha electrons        5 beta electrons
       nuclear repulsion energy        10.0876246133 Hartrees.
 IExCor=  402 DFT=T Ex+Corr=B3LYP ExCW=0 ScaHFX=  0.200000
 ScaDFX=  0.800000  0.720000  1.000000  0.810000 ScalE2=  1.000000  1.000000
 IRadAn=      5 IRanWt=     -1 IRanGd=            0 ICorTp=0 IEmpDi=141
 NAtoms=    5 NActive=    5 NUniq=    2 SFac= 4.00D+00 NAtFMM=   60 NAOKFM=F Big=F
 Integral buffers will be    131072 words long.
 Raffenetti 2 integral format.
 Two-electron integral symmetry is turned on.
 R6Disp:  Grimme-D3(BJ) Dispersion energy=       -0.0021013668 Hartrees.
 Nuclear repulsion after empirical dispersion term =       10.0855232465 Hartrees.
 ------------------------------------------------------------------------------
 Polarizable Continuum Model (PCM)
 =================================
 Model                : PCM.
 Atomic radii         : SMD-Coulomb.
 Polarization charges : Total charges.
 Charge compensation  : None.
 Solution method      : On-the-fly selection.
 Cavity type          : VdW (van der Waals Surface) (Alpha=1.000).
 Cavity algorithm     : GePol (No added spheres)
                        Default sphere list used, NSphG=    5.
                        Lebedev-Laikov grids with approx.  5.0 points / Ang**2.
                        Smoothing algorithm: York/Karplus (Gamma=1.0000).
                        Polarization charges: spherical gaussians, with
                                              point-specific exponents (IZeta= 3).
                        Self-potential: point-specific (ISelfS= 7).
                        Self-field    : sphere-specific E.n sum rule (ISelfD= 2).
 1st derivatives      : Analytical E(r).r(x)/FMM algorithm (CHGder, D1EAlg=3).
                        Cavity 1st derivative terms included.
 Solvent              : TetraHydroFuran, Eps=   7.425700 Eps(inf)=   1.974025
 ------------------------------------------------------------------------------
 Spheres list:
 ISph  on   Nord     Re0    Alpha      Xe            Ye            Ze
    1   B      1    1.8000  1.000      0.000000      0.000000      0.000000
    2   H      2    1.2000  1.000      0.717014      0.717014      0.717014
    3   H      3    1.2000  1.000     -0.717014     -0.717014      0.717014
    4   H      4    1.2000  1.000      0.717014     -0.717014     -0.717014
    5   H      5    1.2000  1.000     -0.717014      0.717014     -0.717014
 ------------------------------------------------------------------------------
 GePol: Number of generator spheres                  =       5
 GePol: Total number of spheres                      =       5
 GePol: Number of exposed spheres                    =       5 (100.00%)
 GePol: Number of points                             =     434
 GePol: Average weight of points                     =       0.12
 GePol: Minimum weight of points                     =   0.13D-02
 GePol: Maximum weight of points                     =    0.17992
 GePol: Number of points with low weight             =       0
 GePol: Fraction of low-weight points (<1% of avg)   =       0.00%
 GePol: Cavity surface area                          =     53.686 Ang**2
 GePol: Cavity volume                                =     32.976 Ang**3
 ------------------------------------------------------------------------------
 Atomic radii for non-electrostatic terms: SMD-CDS.
 ------------------------------------------------------------------------------
 PCM non-electrostatic energy =         0.0016864822 Hartrees.
 Nuclear repulsion after PCM non-electrostatic terms =       10.0872097287 Hartrees.
 Leave Link  301 at Tue Jun 23 22:00:37 2026, MaxMem=  1879048192 cpu:               0.0 elap:               0.0
 (Enter /CH/g16/l302.exe)
 NPDir=0 NMtPBC=     1 NCelOv=     1 NCel=       1 NClECP=     1 NCelD=      1
         NCelK=      1 NCelE2=     1 NClLst=     1 CellRange=     0.0.
 One-electron integrals computed using PRISM.
 One-electron integral symmetry used in STVInt
  24 Symmetry operations used in ECPInt.
 ECPInt:  NShTT=     171 NPrTT=     553 LenC2=     172 LenP2D=     539.
 LDataN:  DoStor=T MaxTD1= 4 Len=   56
 NBasis=    34 RedAO= T EigKep=  5.67D-03  NBF=    10     8     8     8
 NBsUse=    34 1.00D-06 EigRej= -1.00D+00 NBFU=    10     8     8     8
 Precomputing XC quadrature grid using
 IXCGrd= 4 IRadAn=           5 IRanWt=          -1 IRanGd=           0 AccXCQ= 0.00D+00.
 Generated NRdTot=       0 NPtTot=           0 NUsed=           0 NTot=          32
 NSgBfM=    35    35    35    35    35 MxSgAt=     5 MxSgA2=     5.
 Leave Link  302 at Tue Jun 23 22:00:37 2026, MaxMem=  1879048192 cpu:               0.3 elap:               0.1
 (Enter /CH/g16/l303.exe)
 DipDrv:  MaxL=1.
 Leave Link  303 at Tue Jun 23 22:00:37 2026, MaxMem=  1879048192 cpu:               0.0 elap:               0.0
 (Enter /CH/g16/l401.exe)
 Initial guess from the checkpoint file:  "BH4m_anion.chk"
 B after Tr=     0.000000    0.000000   -0.000000
         Rot=    1.000000    0.000000    0.000000   -0.000000 Ang=   0.00 deg.
 Guess basis will be translated and rotated to current coordinates.
 JPrj=2 DoOrth=T DoCkMO=T.
 Initial guess orbital symmetries:
       Occupied  (A1) (A1) (T2) (T2) (T2)
       Virtual   (T2) (T2) (T2) (A1) (T2) (T2) (T2) (A1) (T2) (T2)
                 (T2) (A1) (E) (E) (T2) (T2) (T2) (T1) (T1) (T1)
                 (T2) (T2) (T2) (E) (E) (A1) (T2) (T2) (T2)
 The electronic state of the initial guess is 1-A1.
 Leave Link  401 at Tue Jun 23 22:00:38 2026, MaxMem=  1879048192 cpu:               0.1 elap:               0.0
 (Enter /CH/g16/l502.exe)
 Keep R1 ints in memory in symmetry-blocked form, NReq=7092481.
 FoFCou: FMM=F IPFlag=           0 FMFlag=           0 FMFlg1=           0
         NFxFlg=           0 DoJE=F BraDBF=F KetDBF=F FulRan=T
         wScrn=  0.000000 ICntrl=       600 IOpCl=  0 I1Cent=           0 NGrid=           0
         NMat0=    1 NMatS0=    595 NMatT0=    0 NMatD0=    1 NMtDS0=    0 NMtDT0=    0
 Petite list used in FoFCou.
 Closed shell SCF:
 Using DIIS extrapolation, IDIIS=  1040.
 NGot=  1879048192 LenX=  1878997545 LenY=  1878995879
 Requested convergence on RMS density matrix=1.00D-08 within 128 cycles.
 Requested convergence on MAX density matrix=1.00D-06.
 Requested convergence on             energy=1.00D-06.
 No special actions if energy rises.

 Cycle   1  Pass 1  IDiag  1:
 Inv3:  Mode=1 IEnd=      565068.
 Iteration    1 A*A^-1 deviation from unit magnitude is 6.00D-15 for    183.
 Iteration    1 A*A^-1 deviation from orthogonality  is 1.60D-15 for    378    137.
 Iteration    1 A^-1*A deviation from unit magnitude is 5.11D-15 for    183.
 Iteration    1 A^-1*A deviation from orthogonality  is 1.50D-15 for    335    216.
 E= -27.3339881228534    
 DIIS: error= 2.43D-04 at cycle   1 NSaved=   1.
 NSaved= 1 IEnMin= 1 EnMin= -27.3339881228534     IErMin= 1 ErrMin= 2.43D-04
 ErrMax= 2.43D-04  0.00D+00 EMaxC= 1.00D-01 BMatC= 7.73D-07 BMatP= 7.73D-07
 IDIUse=3 WtCom= 9.98D-01 WtEn= 2.43D-03
 Coeff-Com:  0.100D+01
 Coeff-En:   0.100D+01
 Coeff:      0.100D+01
 Gap=     0.421 Goal=   None    Shift=    0.000
 RMSDP=4.00D-05 MaxDP=2.84D-04              OVMax= 4.45D-04

 Cycle   2  Pass 1  IDiag  1:
 E= -27.3339888523897     Delta-E=       -0.000000729536 Rises=F Damp=F
 DIIS: error= 7.31D-05 at cycle   2 NSaved=   2.
 NSaved= 2 IEnMin= 2 EnMin= -27.3339888523897     IErMin= 2 ErrMin= 7.31D-05
 ErrMax= 7.31D-05  0.00D+00 EMaxC= 1.00D-01 BMatC= 1.49D-07 BMatP= 7.73D-07
 IDIUse=1 WtCom= 1.00D+00 WtEn= 0.00D+00
 Coeff-Com:  0.236D+00 0.764D+00
 Coeff:      0.236D+00 0.764D+00
 Gap=     0.421 Goal=   None    Shift=    0.000
 RMSDP=1.94D-05 MaxDP=2.66D-04 DE=-7.30D-07 OVMax= 2.43D-04

 Cycle   3  Pass 1  IDiag  1:
 E= -27.3339890418084     Delta-E=       -0.000000189419 Rises=F Damp=F
 DIIS: error= 3.74D-05 at cycle   3 NSaved=   3.
 NSaved= 3 IEnMin= 3 EnMin= -27.3339890418084     IErMin= 3 ErrMin= 3.74D-05
 ErrMax= 3.74D-05  0.00D+00 EMaxC= 1.00D-01 BMatC= 3.45D-08 BMatP= 1.49D-07
 IDIUse=1 WtCom= 1.00D+00 WtEn= 0.00D+00
 Coeff-Com:  0.570D-03 0.324D+00 0.676D+00
 Coeff:      0.570D-03 0.324D+00 0.676D+00
 Gap=     0.421 Goal=   None    Shift=    0.000
 RMSDP=6.10D-06 MaxDP=7.14D-05 DE=-1.89D-07 OVMax= 7.89D-05

 Cycle   4  Pass 1  IDiag  1:
 E= -27.3339890944709     Delta-E=       -0.000000052662 Rises=F Damp=F
 DIIS: error= 7.82D-07 at cycle   4 NSaved=   4.
 NSaved= 4 IEnMin= 4 EnMin= -27.3339890944709     IErMin= 4 ErrMin= 7.82D-07
 ErrMax= 7.82D-07  0.00D+00 EMaxC= 1.00D-01 BMatC= 1.52D-11 BMatP= 3.45D-08
 IDIUse=1 WtCom= 1.00D+00 WtEn= 0.00D+00
 Coeff-Com: -0.296D-02 0.258D-01 0.551D-01 0.922D+00
 Coeff:     -0.296D-02 0.258D-01 0.551D-01 0.922D+00
 Gap=     0.421 Goal=   None    Shift=    0.000
 RMSDP=2.95D-07 MaxDP=2.51D-06 DE=-5.27D-08 OVMax= 2.06D-06

 Cycle   5  Pass 1  IDiag  1:
 E= -27.3339890944984     Delta-E=       -0.000000000028 Rises=F Damp=F
 DIIS: error= 6.28D-08 at cycle   5 NSaved=   5.
 NSaved= 5 IEnMin= 5 EnMin= -27.3339890944984     IErMin= 5 ErrMin= 6.28D-08
 ErrMax= 6.28D-08  0.00D+00 EMaxC= 1.00D-01 BMatC= 9.75D-14 BMatP= 1.52D-11
 IDIUse=1 WtCom= 1.00D+00 WtEn= 0.00D+00
 Coeff-Com:  0.244D-03-0.340D-02-0.566D-02-0.889D-01 0.110D+01
 Coeff:      0.244D-03-0.340D-02-0.566D-02-0.889D-01 0.110D+01
 Gap=     0.421 Goal=   None    Shift=    0.000
 RMSDP=4.49D-08 MaxDP=3.13D-07 DE=-2.75D-11 OVMax= 2.27D-07

 Cycle   6  Pass 1  IDiag  1:
 E= -27.3339890944988     Delta-E=       -0.000000000000 Rises=F Damp=F
 DIIS: error= 3.21D-09 at cycle   6 NSaved=   6.
 NSaved= 6 IEnMin= 6 EnMin= -27.3339890944988     IErMin= 6 ErrMin= 3.21D-09
 ErrMax= 3.21D-09  0.00D+00 EMaxC= 1.00D-01 BMatC= 4.32D-16 BMatP= 9.75D-14
 IDIUse=1 WtCom= 1.00D+00 WtEn= 0.00D+00
 Coeff-Com: -0.121D-04 0.235D-03 0.443D-03 0.411D-02-0.107D+00 0.110D+01
 Coeff:     -0.121D-04 0.235D-03 0.443D-03 0.411D-02-0.107D+00 0.110D+01
 Gap=     0.421 Goal=   None    Shift=    0.000
 RMSDP=3.78D-09 MaxDP=3.03D-08 DE=-3.80D-13 OVMax= 1.48D-08

 Error on total polarization charges =  0.06164
 SCF Done:  E(RB3LYP) =  -27.3339890945     A.U. after    6 cycles
            NFock=  6  Conv=0.38D-08     -V/T= 2.0195
 KE= 2.681109101919D+01 PE=-8.457315672186D+01 EE= 2.034086687946D+01
 SMD-CDS (non-electrostatic) energy       (kcal/mol) =       1.06
 (included in total energy above)
 Leave Link  502 at Tue Jun 23 22:00:38 2026, MaxMem=  1879048192 cpu:               2.3 elap:               0.3
 (Enter /CH/g16/l701.exe)
 ... and contract with generalized density number  0.
 Compute integral first derivatives.
 R6Disp: Adding Grimme-D3(BJ) dispersion energy 1st derivatives to the gradient.
  24 Symmetry operations used in ECPInt.
 ECPInt:  NShTT=     171 NPrTT=     553 LenC2=     172 LenP2D=     539.
 LDataN:  DoStor=T MaxTD1= 5 Len=  102
 D1PCM: PCM CHGder 1st derivatives, ID1Alg=3 FixD1E=F DoIter=F DoCFld=F I1PDM=0.
 GePol: Maximum number of non-zero 1st derivatives   =     274
 Leave Link  701 at Tue Jun 23 22:00:38 2026, MaxMem=  1879048192 cpu:               1.1 elap:               0.2
 (Enter /CH/g16/l702.exe)
 L702 exits ... SP integral derivatives will be done elsewhere.
 Leave Link  702 at Tue Jun 23 22:00:38 2026, MaxMem=  1879048192 cpu:               0.0 elap:               0.0
 (Enter /CH/g16/l703.exe)
 Integral derivatives from FoFJK, PRISM(SPDF).
 Compute integral first derivatives, UseDBF=F ICtDFT=           0.
 Calling FoFJK, ICntrl=      2127 FMM=F ISym2X=1 I1Cent= 0 IOpClX= 0 NMat=1 NMatS=1 NMatT=0.
 FoFJK:  IHMeth= 1 ICntrl=    2127 DoSepK=F KAlg= 0 I1Cent=           0 FoldK=F
 IRaf=         0 NMat=       1 IRICut=       1 DoRegI=T DoRafI=F ISym2E= 1 IDoP0=0 IntGTp=1.
 FoFCou: FMM=F IPFlag=           0 FMFlag=      100000 FMFlg1=         800
         NFxFlg=           0 DoJE=F BraDBF=F KetDBF=F FulRan=T
         wScrn=  0.000000 ICntrl=      2127 IOpCl=  0 I1Cent=           0 NGrid=           0
         NMat0=    1 NMatS0=      1 NMatT0=    0 NMatD0=    1 NMtDS0=    0 NMtDT0=    0
 Petite list used in FoFCou.
 Leave Link  703 at Tue Jun 23 22:00:38 2026, MaxMem=  1879048192 cpu:               0.4 elap:               0.1
 (Enter /CH/g16/l716.exe)
 Dipole        = 2.22044605D-16 0.00000000D+00-4.44089210D-16
 ***** Axes restored to original set *****
 -------------------------------------------------------------------
 Center     Atomic                   Forces (Hartrees/Bohr)
 Number     Number              X              Y              Z
 -------------------------------------------------------------------
      1        5          -0.000000000   -0.000000000    0.000000000
      2        1           0.000036744    0.000036744    0.000036744
      3        1           0.000036744   -0.000036744   -0.000036744
      4        1          -0.000036744    0.000036744   -0.000036744
      5        1          -0.000036744   -0.000036744    0.000036744
 -------------------------------------------------------------------
 Cartesian Forces:  Max     0.000036744 RMS     0.000032864
 Leave Link  716 at Tue Jun 23 22:00:38 2026, MaxMem=  1879048192 cpu:               0.0 elap:               0.0
 (Enter /CH/g16/l103.exe)

 GradGradGradGradGradGradGradGradGradGradGradGradGradGradGradGradGradGrad
 Berny optimization.
 Using GEDIIS/GDIIS optimizer.
 FormGI is forming the generalized inverse of G from B-inverse, IUseBI=4.
 Internal  Forces:  Max     0.000063642 RMS     0.000034018
 Search for a local minimum.
 Step number   2 out of a maximum of   24
 All quantities printed in internal units (Hartrees-Bohrs-Radians)
 RMS Force = .34018D-04 SwitMx=.10000D-02 MixMth= 2
 Mixed Optimization -- En-DIIS/RFO-DIIS
 Swapping is turned off.
 Update second derivatives using D2CorX and points    1    2
 DE= -6.29D-06 DEPred=-5.84D-06 R= 1.08D+00
 TightC=F SS=  1.41D+00  RLast= 7.29D-03 DXNew= 5.0454D-01 2.1874D-02
 Trust test= 1.08D+00 RLast= 7.29D-03 DXMaxT set to 3.00D-01
 The second derivative matrix:
                          R1        R2        R3        R4        A1
           R1           0.21527
           R2          -0.00436   0.21527
           R3          -0.00436  -0.00436   0.21527
           R4          -0.00436  -0.00436  -0.00436   0.21527
           A1          -0.00000  -0.00000  -0.00000  -0.00000   0.16000
           A2           0.00000   0.00000   0.00000   0.00000  -0.00000
           A3          -0.00000  -0.00000  -0.00000  -0.00000   0.00000
           A4           0.00000   0.00000   0.00000   0.00000  -0.00000
           A5          -0.00000  -0.00000  -0.00000  -0.00000   0.00000
           A6          -0.00000  -0.00000  -0.00000  -0.00000   0.00000
           D1           0.00000   0.00000   0.00000   0.00000  -0.00000
           D2           0.00000   0.00000   0.00000   0.00000  -0.00000
           D3           0.00000   0.00000   0.00000   0.00000  -0.00000
           D4          -0.00000  -0.00000  -0.00000  -0.00000   0.00000
                          A2        A3        A4        A5        A6
           A2           0.16000
           A3          -0.00000   0.16000
           A4           0.00000  -0.00000   0.16000
           A5          -0.00000   0.00000  -0.00000   0.16000
           A6          -0.00000   0.00000  -0.00000   0.00000   0.16000
           D1           0.00000  -0.00000   0.00000  -0.00000  -0.00000
           D2           0.00000  -0.00000   0.00000  -0.00000  -0.00000
           D3           0.00000  -0.00000   0.00000  -0.00000  -0.00000
           D4          -0.00000   0.00000  -0.00000   0.00000   0.00000
                          D1        D2        D3        D4
           D1           0.00230
           D2           0.00000   0.00230
           D3           0.00000   0.00000   0.00230
           D4          -0.00000  -0.00000  -0.00000   0.00230
 ITU=  1  0
     Eigenvalues ---    0.05082   0.05715   0.08641   0.16000   0.16000
     Eigenvalues ---    0.20219   0.21963   0.21963   0.21963
 En-DIIS/RFO-DIIS/Sim-DIIS IScMMF=       -3 using points:     2    1
 RFO step:  Lambda=-8.01293764D-08.
 NNeg= 0 NGDIIS= 2 SimSw=  2.50D-03 Rises=F DC= -6.29D-06 SmlDif=  1.00D-05
 NRisDI= 0 DoIntr=F SqrtH=F CThrHd= 10.0 CDAdj=  3.0
 RMS Error=  0.1682499618D-03 NUsed= 2 OKEnD=F EnDIS=F
 InvSVX:  RCond= 1.33D-05 Info=           0 Equed=N FErr=  1.06D-15 BErr=  2.65D-17
 DidBck=F Rises=F RFO-DIIS coefs:    1.08634   -0.08634
 Iteration  1 RMS(Cart)=  0.00016825 RMS(Int)=  0.00000000
 Iteration  2 RMS(Cart)=  0.00000000 RMS(Int)=  0.00000000
 ITry= 1 IFail=0 DXMaxC= 1.82D-04 DCOld= 1.00D+10 DXMaxT= 3.00D-01 DXLimC= 3.00D+00 Rises=F
 ClnCor:  largest displacement from symmetrization is 1.34D-14 for atom     4.
 Variable       Old X    -DE/DX   Delta X   Delta X   Delta X     New X
                                 (Linear)    (Quad)   (Total)
    R1        2.34686   0.00006   0.00031   0.00000   0.00031   2.34717
    R2        2.34686   0.00006   0.00031   0.00000   0.00031   2.34717
    R3        2.34686   0.00006   0.00031  -0.00000   0.00031   2.34717
    R4        2.34686   0.00006   0.00031  -0.00000   0.00031   2.34717
    A1        1.91063   0.00000   0.00000   0.00000   0.00000   1.91063
    A2        1.91063  -0.00000  -0.00000  -0.00000   0.00000   1.91063
    A3        1.91063  -0.00000  -0.00000  -0.00000   0.00000   1.91063
    A4        1.91063  -0.00000  -0.00000  -0.00000   0.00000   1.91063
    A5        1.91063  -0.00000  -0.00000   0.00000   0.00000   1.91063
    A6        1.91063   0.00000   0.00000   0.00000   0.00000   1.91063
    D1        2.09440  -0.00000   0.00000  -0.00000   0.00000   2.09440
    D2       -2.09440  -0.00000   0.00000  -0.00000  -0.00000  -2.09440
    D3        2.09440   0.00000   0.00000   0.00000   0.00000   2.09440
    D4       -2.09440   0.00000   0.00000   0.00000   0.00000  -2.09440
         Item               Value     Threshold  Converged?
 Maximum Force            0.000064     0.000450     YES
 RMS     Force            0.000034     0.000300     YES
 Maximum Displacement     0.000182     0.001800     YES
 RMS     Displacement     0.000168     0.001200     YES
 Predicted change in Energy=-4.006469D-08
 Optimization completed.
    -- Stationary point found.
                           ----------------------------
                           !   Optimized Parameters   !
                           ! (Angstroms and Degrees)  !
 --------------------------                            --------------------------
 ! Name  Definition              Value          Derivative Info.                !
 --------------------------------------------------------------------------------
 ! R1    R(1,2)                  1.2419         -DE/DX =    0.0001              !
 ! R2    R(1,3)                  1.2419         -DE/DX =    0.0001              !
 ! R3    R(1,4)                  1.2419         -DE/DX =    0.0001              !
 ! R4    R(1,5)                  1.2419         -DE/DX =    0.0001              !
 ! A1    A(2,1,3)              109.4712         -DE/DX =    0.0                 !
 ! A2    A(2,1,4)              109.4712         -DE/DX =    0.0                 !
 ! A3    A(2,1,5)              109.4712         -DE/DX =    0.0                 !
 ! A4    A(3,1,4)              109.4712         -DE/DX =    0.0                 !
 ! A5    A(3,1,5)              109.4712         -DE/DX =    0.0                 !
 ! A6    A(4,1,5)              109.4712         -DE/DX =    0.0                 !
 ! D1    D(2,1,4,3)            120.0            -DE/DX =    0.0                 !
 ! D2    D(2,1,5,3)           -120.0            -DE/DX =    0.0                 !
 ! D3    D(2,1,5,4)            120.0            -DE/DX =    0.0                 !
 ! D4    D(3,1,5,4)           -120.0            -DE/DX =    0.0                 !
 --------------------------------------------------------------------------------
 Lowest energy point so far.  Saving SCF results.
 Largest change from initial coordinates is atom    3       0.002 Angstoms.
 GradGradGradGradGradGradGradGradGradGradGradGradGradGradGradGradGradGrad

 Leave Link  103 at Tue Jun 23 22:00:38 2026, MaxMem=  1879048192 cpu:               0.0 elap:               0.0
 (Enter /CH/g16/l202.exe)
                          Input orientation:                          
 ---------------------------------------------------------------------
 Center     Atomic      Atomic             Coordinates (Angstroms)
 Number     Number       Type             X           Y           Z
 ---------------------------------------------------------------------
      1          5           0        0.000000    0.000000    0.000000
      2          1           0        0.717014    0.717014    0.717014
      3          1           0        0.717014   -0.717014   -0.717014
      4          1           0       -0.717014    0.717014   -0.717014
      5          1           0       -0.717014   -0.717014    0.717014
 ---------------------------------------------------------------------
                    Distance matrix (angstroms):
                    1          2          3          4          5
     1  B    0.000000
     2  H    1.241904   0.000000
     3  H    1.241904   2.028021   0.000000
     4  H    1.241904   2.028021   2.028021   0.000000
     5  H    1.241904   2.028021   2.028021   2.028021   0.000000
 Stoichiometry    BH4(1-)
 Framework group  TD[O(B),4C3(H)]
 Deg. of freedom     1
 Full point group                 TD      NOp  24
 RotChk:  IX=0 Diff= 1.10D-15
 Largest Abelian subgroup         D2      NOp   4
 Largest concise Abelian subgroup D2      NOp   4
                         Standard orientation:                         
 ---------------------------------------------------------------------
 Center     Atomic      Atomic             Coordinates (Angstroms)
 Number     Number       Type             X           Y           Z
 ---------------------------------------------------------------------
      1          5           0        0.000000    0.000000    0.000000
      2          1           0        0.717014    0.717014    0.717014
      3          1           0       -0.717014   -0.717014    0.717014
      4          1           0        0.717014   -0.717014   -0.717014
      5          1           0       -0.717014    0.717014   -0.717014
 ---------------------------------------------------------------------
 Rotational constants (GHZ):         121.9233787         121.9233787         121.9233787
 Leave Link  202 at Tue Jun 23 22:00:38 2026, MaxMem=  1879048192 cpu:               0.0 elap:               0.0
 (Enter /CH/g16/l601.exe)
 Copying SCF densities to generalized density rwf, IOpCl= 0 IROHF=0.

 **********************************************************************

            Population analysis using the SCF Density.

 **********************************************************************

 Orbital symmetries:
       Occupied  (A1) (A1) (T2) (T2) (T2)
       Virtual   (T2) (T2) (T2) (A1) (T2) (T2) (T2) (A1) (T2) (T2)
                 (T2) (A1) (E) (E) (T2) (T2) (T2) (T1) (T1) (T1)
                 (T2) (T2) (T2) (E) (E) (A1) (T2) (T2) (T2)
 The electronic state is 1-A1.
 Alpha  occ. eigenvalues --   -6.64363  -0.44191  -0.25053  -0.25053  -0.25053
 Alpha virt. eigenvalues --    0.17089   0.17089   0.17089   0.21936   0.32393
 Alpha virt. eigenvalues --    0.32393   0.32393   0.34221   0.68930   0.68930
 Alpha virt. eigenvalues --    0.68930   0.83960   0.96862   0.96862   1.47629
 Alpha virt. eigenvalues --    1.47629   1.47629   1.53179   1.53179   1.53179
 Alpha virt. eigenvalues --    1.96439   1.96439   1.96439   2.22078   2.22078
 Alpha virt. eigenvalues --    2.46047   2.55362   2.55362   2.55362
          Condensed to atoms (all electrons):
               1          2          3          4          5
     1  B    3.813093   0.412649   0.412649   0.412649   0.412649
     2  H    0.412649   0.818499  -0.032356  -0.032356  -0.032356
     3  H    0.412649  -0.032356   0.818499  -0.032356  -0.032356
     4  H    0.412649  -0.032356  -0.032356   0.818499  -0.032356
     5  H    0.412649  -0.032356  -0.032356  -0.032356   0.818499
 Mulliken charges:
               1
     1  B   -0.463687
     2  H   -0.134078
     3  H   -0.134078
     4  H   -0.134078
     5  H   -0.134078
 Sum of Mulliken charges =  -1.00000
 Mulliken charges with hydrogens summed into heavy atoms:
               1
     1  B   -1.000000
 Electronic spatial extent (au):  <R**2>=             53.7585
 Charge=             -1.0000 electrons
 Dipole moment (field-independent basis, Debye):
    X=              0.0000    Y=             -0.0000    Z=             -0.0000  Tot=              0.0000
 Quadrupole moment (field-independent basis, Debye-Ang):
   XX=            -14.2249   YY=            -14.2249   ZZ=            -14.2249
   XY=              0.0000   XZ=              0.0000   YZ=              0.0000
 Traceless Quadrupole moment (field-independent basis, Debye-Ang):
   XX=             -0.0000   YY=              0.0000   ZZ=             -0.0000
   XY=              0.0000   XZ=              0.0000   YZ=              0.0000
 Octapole moment (field-independent basis, Debye-Ang**2):
  XXX=              0.0000  YYY=             -0.0000  ZZZ=             -0.0000  XYY=              0.0000
  XXY=             -0.0000  XXZ=              0.0000  XZZ=              0.0000  YZZ=             -0.0000
  YYZ=             -0.0000  XYZ=             -1.1773
 Hexadecapole moment (field-independent basis, Debye-Ang**3):
 XXXX=            -35.1598 YYYY=            -35.1598 ZZZZ=            -35.1598 XXXY=             -0.0000
 XXXZ=              0.0000 YYYX=             -0.0000 YYYZ=              0.0000 ZZZX=              0.0000
 ZZZY=              0.0000 XXYY=            -11.9626 XXZZ=            -11.9626 YYZZ=            -11.9626
 XXYZ=              0.0000 YYXZ=             -0.0000 ZZXY=             -0.0000
 N-N= 1.008720972871D+01 E-N=-8.457315678563D+01  KE= 2.681109101919D+01
 Symmetry A    KE= 2.306382452382D+01
 Symmetry B1   KE= 1.249088831790D+00
 Symmetry B2   KE= 1.249088831790D+00
 Symmetry B3   KE= 1.249088831790D+00
 No NMR shielding tensors so no spin-rotation constants.
 Leave Link  601 at Tue Jun 23 22:00:38 2026, MaxMem=  1879048192 cpu:               0.3 elap:               0.0
 (Enter /CH/g16/l9999.exe)
 Unable to Open any file for archive entry.
 1\1\GINC-NODE0-CHCLUSTER\FOpt\RB3LYP\def2SVP\B1H4(1-)\LS\23-Jun-2026\0
 \\#p B3LYP/def2SVP EmpiricalDispersion=GD3BJ opt freq SCRF=(SMD,Solven
 t=Tetrahydrofuran) int=ultrafine\\BH4m_anion D1 (T19 screen)\\-1,1\B,0
 .,0.,0.\H,0.7170138426,0.7170138426,0.7170138426\H,0.7170138426,-0.717
 0138426,-0.7170138426\H,-0.7170138426,0.7170138426,-0.7170138426\H,-0.
 7170138426,-0.7170138426,0.7170138426\\Version=ES64L-G16RevC.02\State=
 1-A1\HF=-27.3339891\RMSD=3.785e-09\RMSF=3.286e-05\Dipole=0.,0.,0.\Quad
 rupole=0.,0.,0.,0.,0.,0.\PG=TD [O(B1),4C3(H1)]\\@
 The archive entry for this job was punched.


 ASKING FOR EFFICIENCY AND ADAPTABILITY IN THE SAME PROGRAM IS LIKE
 ASKING FOR A BEAUTIFUL AND MODEST WIFE ...
 WE'LL PROBABLY HAVE TO SETTLE FOR ONE OR THE OTHER.

             -- THE PSYCHOLOGY OF COMPUTER PROGRAMMING
                GERALD M. WEINBERG
 Leave Link 9999 at Tue Jun 23 22:00:38 2026, MaxMem=  1879048192 cpu:               0.0 elap:               0.0
 Job cpu time:       0 days  0 hours  0 minutes 11.2 seconds.
 Elapsed time:       0 days  0 hours  0 minutes  2.1 seconds.
 File lengths (MBytes):  RWF=     10 Int=      0 D2E=      0 Chk=      2 Scr=      1
 Normal termination of Gaussian 16 at Tue Jun 23 22:00:38 2026.
 (Enter /CH/g16/l1.exe)
 Link1:  Proceeding to internal job step number  2.
 -------------------------------------------------------------------
 #P Geom=AllCheck Guess=TCheck SCRF=Check GenChk RB3LYP/def2SVP Freq
 -------------------------------------------------------------------
 1/10=4,29=7,30=1,38=1,40=1/1,3;
 2/12=2,40=1/2;
 3/5=43,7=101,11=2,14=-4,25=1,30=1,70=2,71=2,74=-5,75=-5,116=1,124=41,140=1/1,2,3;
 4/5=101/1;
 5/5=2,38=6,98=1/2;
 8/6=4,10=90,11=11/1;
 11/6=1,8=1,9=11,15=111,16=1/1,2,10;
 10/6=1/2;
 6/7=2,8=2,9=2,10=2,28=1/1;
 7/8=1,10=1,25=1/1,2,3,16;
 1/10=4,30=1/3;
 99//99;
 Leave Link    1 at Tue Jun 23 22:00:38 2026, MaxMem=  1879048192 cpu:               0.0 elap:               0.0
 (Enter /CH/g16/l101.exe)
 Structure from the checkpoint file:  "BH4m_anion.chk"
 --------------------------
 BH4m_anion D1 (T19 screen)
 --------------------------
 Charge = -1 Multiplicity = 1
 Redundant internal coordinates found in file.  (old form).
 B,0,0.,0.,0.
 H,0,0.7170138426,0.7170138426,0.7170138426
 H,0,0.7170138426,-0.7170138426,-0.7170138426
 H,0,-0.7170138426,0.7170138426,-0.7170138426
 H,0,-0.7170138426,-0.7170138426,0.7170138426
 Recover connectivity data from disk.
 ITRead=  0  0  0  0  0
 MicOpt= -1 -1 -1 -1 -1
 NAtoms=      5 NQM=        5 NQMF=       0 NMMI=      0 NMMIF=      0
                NMic=       0 NMicF=      0.
                    Isotopes and Nuclear Properties:
 (Nuclear quadrupole moments (NQMom) in fm**2, nuclear magnetic moments (NMagM)
  in nuclear magnetons)

  Atom         1           2           3           4           5
 IAtWgt=          11           1           1           1           1
 AtmWgt=  11.0093053   1.0078250   1.0078250   1.0078250   1.0078250
 NucSpn=           3           1           1           1           1
 AtZEff=   2.7500000   1.0000000   1.0000000   1.0000000   1.0000000
 NQMom=    4.0590000   0.0000000   0.0000000   0.0000000   0.0000000
 NMagM=    2.6886370   2.7928460   2.7928460   2.7928460   2.7928460
 AtZNuc=   5.0000000   1.0000000   1.0000000   1.0000000   1.0000000
 Leave Link  101 at Tue Jun 23 22:00:39 2026, MaxMem=  1879048192 cpu:               0.3 elap:               0.3
 (Enter /CH/g16/l103.exe)

 GradGradGradGradGradGradGradGradGradGradGradGradGradGradGradGradGradGrad
 Berny optimization.
 Initialization pass.
                           ----------------------------
                           !    Initial Parameters    !
                           ! (Angstroms and Degrees)  !
 --------------------------                            --------------------------
 ! Name  Definition              Value          Derivative Info.                !
 --------------------------------------------------------------------------------
 ! R1    R(1,2)                  1.2419         calculate D2E/DX2 analytically  !
 ! R2    R(1,3)                  1.2419         calculate D2E/DX2 analytically  !
 ! R3    R(1,4)                  1.2419         calculate D2E/DX2 analytically  !
 ! R4    R(1,5)                  1.2419         calculate D2E/DX2 analytically  !
 ! A1    A(2,1,3)              109.4712         calculate D2E/DX2 analytically  !
 ! A2    A(2,1,4)              109.4712         calculate D2E/DX2 analytically  !
 ! A3    A(2,1,5)              109.4712         calculate D2E/DX2 analytically  !
 ! A4    A(3,1,4)              109.4712         calculate D2E/DX2 analytically  !
 ! A5    A(3,1,5)              109.4712         calculate D2E/DX2 analytically  !
 ! A6    A(4,1,5)              109.4712         calculate D2E/DX2 analytically  !
 ! D1    D(2,1,4,3)            120.0            calculate D2E/DX2 analytically  !
 ! D2    D(2,1,5,3)           -120.0            calculate D2E/DX2 analytically  !
 ! D3    D(2,1,5,4)            120.0            calculate D2E/DX2 analytically  !
 ! D4    D(3,1,5,4)           -120.0            calculate D2E/DX2 analytically  !
 --------------------------------------------------------------------------------
 Trust Radius=3.00D-01 FncErr=1.00D-07 GrdErr=1.00D-07 EigMax=2.50D+02 EigMin=1.00D-04
 Number of steps in this run=      2 maximum allowed number of steps=      2.
 GradGradGradGradGradGradGradGradGradGradGradGradGradGradGradGradGradGrad

 Leave Link  103 at Tue Jun 23 22:00:39 2026, MaxMem=  1879048192 cpu:               0.0 elap:               0.0
 (Enter /CH/g16/l202.exe)
                          Input orientation:                          
 ---------------------------------------------------------------------
 Center     Atomic      Atomic             Coordinates (Angstroms)
 Number     Number       Type             X           Y           Z
 ---------------------------------------------------------------------
      1          5           0        0.000000    0.000000    0.000000
      2          1           0        0.717014    0.717014    0.717014
      3          1           0        0.717014   -0.717014   -0.717014
      4          1           0       -0.717014    0.717014   -0.717014
      5          1           0       -0.717014   -0.717014    0.717014
 ---------------------------------------------------------------------
                    Distance matrix (angstroms):
                    1          2          3          4          5
     1  B    0.000000
     2  H    1.241904   0.000000
     3  H    1.241904   2.028021   0.000000
     4  H    1.241904   2.028021   2.028021   0.000000
     5  H    1.241904   2.028021   2.028021   2.028021   0.000000
 Stoichiometry    BH4(1-)
 Framework group  TD[O(B),4C3(H)]
 Deg. of freedom     1
 Full point group                 TD      NOp  24
 RotChk:  IX=0 Diff= 5.08D-16
 Largest Abelian subgroup         D2      NOp   4
 Largest concise Abelian subgroup D2      NOp   4
                         Standard orientation:                         
 ---------------------------------------------------------------------
 Center     Atomic      Atomic             Coordinates (Angstroms)
 Number     Number       Type             X           Y           Z
 ---------------------------------------------------------------------
      1          5           0        0.000000    0.000000    0.000000
      2          1           0        0.717014    0.717014    0.717014
      3          1           0       -0.717014   -0.717014    0.717014
      4          1           0        0.717014   -0.717014   -0.717014
      5          1           0       -0.717014    0.717014   -0.717014
 ---------------------------------------------------------------------
 Rotational constants (GHZ):         121.9233787         121.9233787         121.9233787
 Leave Link  202 at Tue Jun 23 22:00:39 2026, MaxMem=  1879048192 cpu:               0.0 elap:               0.0
 (Enter /CH/g16/l301.exe)
 Standard basis: def2SVP (5D, 7F)
 Ernie: Thresh=  0.10000D-02 Tol=  0.10000D-05 Strict=F.
 There are    11 symmetry adapted cartesian basis functions of A   symmetry.
 There are     8 symmetry adapted cartesian basis functions of B1  symmetry.
 There are     8 symmetry adapted cartesian basis functions of B2  symmetry.
 There are     8 symmetry adapted cartesian basis functions of B3  symmetry.
 There are    10 symmetry adapted basis functions of A   symmetry.
 There are     8 symmetry adapted basis functions of B1  symmetry.
 There are     8 symmetry adapted basis functions of B2  symmetry.
 There are     8 symmetry adapted basis functions of B3  symmetry.
    34 basis functions,    53 primitive gaussians,    35 cartesian basis functions
     5 alpha electrons        5 beta electrons
       nuclear repulsion energy        10.0876246133 Hartrees.
 IExCor=  402 DFT=T Ex+Corr=B3LYP ExCW=0 ScaHFX=  0.200000
 ScaDFX=  0.800000  0.720000  1.000000  0.810000 ScalE2=  1.000000  1.000000
 IRadAn=      5 IRanWt=     -1 IRanGd=            0 ICorTp=0 IEmpDi=141
 NAtoms=    5 NActive=    5 NUniq=    2 SFac= 4.00D+00 NAtFMM=   60 NAOKFM=F Big=F
 Integral buffers will be    131072 words long.
 Raffenetti 2 integral format.
 Two-electron integral symmetry is turned on.
 R6Disp:  Grimme-D3(BJ) Dispersion energy=       -0.0021013668 Hartrees.
 Nuclear repulsion after empirical dispersion term =       10.0855232465 Hartrees.
 Force inversion solution in PCM.
 ------------------------------------------------------------------------------
 Polarizable Continuum Model (PCM)
 =================================
 Model                : PCM.
 Atomic radii         : SMD-Coulomb.
 Polarization charges : Total charges.
 Charge compensation  : None.
 Solution method      : Matrix inversion.
 Cavity type          : VdW (van der Waals Surface) (Alpha=1.000).
 Cavity algorithm     : GePol (No added spheres)
                        Default sphere list used, NSphG=    5.
                        Lebedev-Laikov grids with approx.  5.0 points / Ang**2.
                        Smoothing algorithm: York/Karplus (Gamma=1.0000).
                        Polarization charges: spherical gaussians, with
                                              point-specific exponents (IZeta= 3).
                        Self-potential: point-specific (ISelfS= 7).
                        Self-field    : sphere-specific E.n sum rule (ISelfD= 2).
 1st derivatives      : Analytical E(r).r(x)/FMM algorithm (CHGder, D1EAlg=3).
                        Cavity 1st derivative terms included.
 2nd derivatives      : Analytical E(r).r(xy)/FMM algorithm (CHGder, D2EAlg=3).
                        Cavity 2nd derivative terms included.
 Solvent              : TetraHydroFuran, Eps=   7.425700 Eps(inf)=   1.974025
 ------------------------------------------------------------------------------
 Spheres list:
 ISph  on   Nord     Re0    Alpha      Xe            Ye            Ze
    1   B      1    1.8000  1.000      0.000000      0.000000      0.000000
    2   H      2    1.2000  1.000      0.717014      0.717014      0.717014
    3   H      3    1.2000  1.000     -0.717014     -0.717014      0.717014
    4   H      4    1.2000  1.000      0.717014     -0.717014     -0.717014
    5   H      5    1.2000  1.000     -0.717014      0.717014     -0.717014
 ------------------------------------------------------------------------------
 GePol: Number of generator spheres                  =       5
 GePol: Total number of spheres                      =       5
 GePol: Number of exposed spheres                    =       5 (100.00%)
 GePol: Number of points                             =     434
 GePol: Average weight of points                     =       0.12
 GePol: Minimum weight of points                     =   0.13D-02
 GePol: Maximum weight of points                     =    0.17992
 GePol: Number of points with low weight             =       0
 GePol: Fraction of low-weight points (<1% of avg)   =       0.00%
 GePol: Cavity surface area                          =     53.686 Ang**2
 GePol: Cavity volume                                =     32.976 Ang**3
 ------------------------------------------------------------------------------
 Atomic radii for non-electrostatic terms: SMD-CDS.
 ------------------------------------------------------------------------------
 PCM non-electrostatic energy =         0.0016864822 Hartrees.
 Nuclear repulsion after PCM non-electrostatic terms =       10.0872097287 Hartrees.
 Leave Link  301 at Tue Jun 23 22:00:39 2026, MaxMem=  1879048192 cpu:               0.0 elap:               0.0
 (Enter /CH/g16/l302.exe)
 NPDir=0 NMtPBC=     1 NCelOv=     1 NCel=       1 NClECP=     1 NCelD=      1
         NCelK=      1 NCelE2=     1 NClLst=     1 CellRange=     0.0.
 One-electron integrals computed using PRISM.
 One-electron integral symmetry used in STVInt
  24 Symmetry operations used in ECPInt.
 ECPInt:  NShTT=     171 NPrTT=     553 LenC2=     172 LenP2D=     539.
 LDataN:  DoStor=T MaxTD1= 4 Len=   56
 NBasis=    34 RedAO= T EigKep=  5.67D-03  NBF=    10     8     8     8
 NBsUse=    34 1.00D-06 EigRej= -1.00D+00 NBFU=    10     8     8     8
 Precomputing XC quadrature grid using
 IXCGrd= 4 IRadAn=           5 IRanWt=          -1 IRanGd=           0 AccXCQ= 0.00D+00.
 Generated NRdTot=       0 NPtTot=           0 NUsed=           0 NTot=          32
 NSgBfM=    35    35    35    35    35 MxSgAt=     5 MxSgA2=     5.
 Leave Link  302 at Tue Jun 23 22:00:39 2026, MaxMem=  1879048192 cpu:               0.2 elap:               0.1
 (Enter /CH/g16/l303.exe)
 DipDrv:  MaxL=1.
 Leave Link  303 at Tue Jun 23 22:00:39 2026, MaxMem=  1879048192 cpu:               0.0 elap:               0.0
 (Enter /CH/g16/l401.exe)
 Initial guess from the checkpoint file:  "BH4m_anion.chk"
 B after Tr=     0.000000   -0.000000   -0.000000
         Rot=    1.000000   -0.000000   -0.000000    0.000000 Ang=   0.00 deg.
 Guess basis will be translated and rotated to current coordinates.
 JPrj=2 DoOrth=T DoCkMO=T.
 Initial guess orbital symmetries:
       Occupied  (A1) (A1) (T2) (T2) (T2)
       Virtual   (T2) (T2) (T2) (A1) (T2) (T2) (T2) (A1) (T2) (T2)
                 (T2) (A1) (E) (E) (T2) (T2) (T2) (T1) (T1) (T1)
                 (T2) (T2) (T2) (E) (E) (A1) (T2) (T2) (T2)
 The electronic state of the initial guess is 1-A1.
 Leave Link  401 at Tue Jun 23 22:00:39 2026, MaxMem=  1879048192 cpu:               0.1 elap:               0.0
 (Enter /CH/g16/l502.exe)
 Keep R1 ints in memory in symmetry-blocked form, NReq=7092481.
 FoFCou: FMM=F IPFlag=           0 FMFlag=           0 FMFlg1=           0
         NFxFlg=           0 DoJE=F BraDBF=F KetDBF=F FulRan=T
         wScrn=  0.000000 ICntrl=       600 IOpCl=  0 I1Cent=           0 NGrid=           0
         NMat0=    1 NMatS0=    595 NMatT0=    0 NMatD0=    1 NMtDS0=    0 NMtDT0=    0
 Petite list used in FoFCou.
 Closed shell SCF:
 Using DIIS extrapolation, IDIIS=  1040.
 NGot=  1879048192 LenX=  1878997545 LenY=  1878995879
 Requested convergence on RMS density matrix=1.00D-08 within 128 cycles.
 Requested convergence on MAX density matrix=1.00D-06.
 Requested convergence on             energy=1.00D-06.
 No special actions if energy rises.

 Cycle   1  Pass 1  IDiag  1:
 Inv3:  Mode=1 IEnd=      565068.
 Iteration    1 A*A^-1 deviation from unit magnitude is 4.00D-15 for    183.
 Iteration    1 A*A^-1 deviation from orthogonality  is 1.72D-15 for    378    137.
 Iteration    1 A^-1*A deviation from unit magnitude is 4.00D-15 for    183.
 Iteration    1 A^-1*A deviation from orthogonality  is 1.69D-15 for    335    216.
 E= -27.3339890944988    
 DIIS: error= 6.73D-11 at cycle   1 NSaved=   1.
 NSaved= 1 IEnMin= 1 EnMin= -27.3339890944988     IErMin= 1 ErrMin= 6.73D-11
 ErrMax= 6.73D-11  0.00D+00 EMaxC= 1.00D-01 BMatC= 7.90D-20 BMatP= 7.90D-20
 IDIUse=1 WtCom= 1.00D+00 WtEn= 0.00D+00
 Coeff-Com:  0.100D+01
 Coeff:      0.100D+01
 Gap=     0.421 Goal=   None    Shift=    0.000
 Skip diagonalization as Alpha Fock matrix is already diagonal.
 RMSDP=8.14D-19 MaxDP=8.67D-18              OVMax= 0.00D+00

 Error on total polarization charges =  0.06164
 SCF Done:  E(RB3LYP) =  -27.3339890945     A.U. after    1 cycles
            NFock=  1  Conv=0.81D-18     -V/T= 2.0195
 KE= 2.681109101919D+01 PE=-8.457315678563D+01 EE= 2.034086694322D+01
 SMD-CDS (non-electrostatic) energy       (kcal/mol) =       1.06
 (included in total energy above)
[...]
 Electronic               0.000              0.000              0.000
 Translational            0.889              2.981             34.071
 Rotational               0.889              2.981             10.897
 Vibrational             21.612              1.154              0.241
                       Q            Log10(Q)             Ln(Q)
 Total Bot       0.200293D-07         -7.698335        -17.726072
 Total V=0       0.125447D+09          8.098459         18.647391
 Vib (Bot)       0.162613D-15        -15.788843        -36.355155
 Vib (V=0)       0.101848D+01          0.007951          0.018308
 Electronic      0.100000D+01          0.000000          0.000000
 Translational   0.229272D+07          6.360352         14.645251
 Rotational      0.537225D+02          1.730156          3.983832
 
                                                      BH4m_anion D1 (T19 screen)
                                                             IR Spectrum
 
     22                                                         1      1                                                             
     32                                                         2      1                                                             
     09                                                         3      2                                                             
     97                                                         7      6                                                             
 
     X                                                                 X                                                             
     X                                                                 X                                                             
     X                                                                                                                               
     X                                                                                                                               
     X                                                                                                                               
     X                                                                                                                               
     X                                                                                                                               
     X                                                                                                                               
     X                                                                                                                               
     X                                                                                                                               
     X                                                                                                                               
     X                                                                                                                               
     X                                                                                                                               
     X                                                                                                                               
     X                                                                                                                               
     X                                                                                                                               
     X                                                                                                                               
     X                                                                                                                               
     X                                                                                                                               
     X                                                                                                                               
 
 ***** Axes restored to original set *****
 -------------------------------------------------------------------
 Center     Atomic                   Forces (Hartrees/Bohr)
 Number     Number              X              Y              Z
 -------------------------------------------------------------------
      1        5          -0.000000000   -0.000000000   -0.000000000
      2        1           0.000036744    0.000036744    0.000036744
      3        1           0.000036744   -0.000036744   -0.000036744
      4        1          -0.000036744    0.000036744   -0.000036744
      5        1          -0.000036744   -0.000036744    0.000036744
 -------------------------------------------------------------------
 Cartesian Forces:  Max     0.000036744 RMS     0.000032864
 Force constants in Cartesian coordinates: 
                1             2             3             4             5 
      1  0.304681D+00
      2  0.000000D+00  0.304681D+00
      3  0.000000D+00  0.000000D+00  0.304681D+00
      4 -0.761701D-01 -0.449709D-01 -0.449709D-01  0.831571D-01
      5 -0.449709D-01 -0.761701D-01 -0.449709D-01  0.524839D-01  0.831571D-01
      6 -0.449709D-01 -0.449709D-01 -0.761701D-01  0.524839D-01  0.524839D-01
      7 -0.761701D-01  0.449709D-01  0.449709D-01  0.792501D-02 -0.617083D-02
      8  0.449709D-01 -0.761701D-01 -0.449709D-01  0.617083D-02 -0.745597D-02
      9  0.449709D-01 -0.449709D-01 -0.761701D-01  0.617083D-02 -0.751296D-02
     10 -0.761701D-01  0.449709D-01 -0.449709D-01 -0.745597D-02  0.617083D-02
     11  0.449709D-01 -0.761701D-01  0.449709D-01 -0.617083D-02  0.792501D-02
     12 -0.449709D-01  0.449709D-01 -0.761701D-01 -0.751296D-02  0.617083D-02
     13 -0.761701D-01 -0.449709D-01  0.449709D-01 -0.745597D-02 -0.751296D-02
     14 -0.449709D-01 -0.761701D-01  0.449709D-01 -0.751296D-02 -0.745597D-02
     15  0.449709D-01  0.449709D-01 -0.761701D-01 -0.617083D-02 -0.617083D-02
                6             7             8             9            10 
      6  0.831571D-01
      7 -0.617083D-02  0.831571D-01
      8 -0.751296D-02 -0.524839D-01  0.831571D-01
      9 -0.745597D-02 -0.524839D-01  0.524839D-01  0.831571D-01
     10 -0.751296D-02 -0.745597D-02  0.751296D-02 -0.617083D-02  0.831571D-01
     11 -0.617083D-02  0.751296D-02 -0.745597D-02  0.617083D-02 -0.524839D-01
     12 -0.745597D-02  0.617083D-02 -0.617083D-02  0.792501D-02  0.524839D-01
     13  0.617083D-02 -0.745597D-02 -0.617083D-02  0.751296D-02  0.792501D-02
     14  0.617083D-02  0.617083D-02  0.792501D-02 -0.617083D-02 -0.617083D-02
     15  0.792501D-02  0.751296D-02  0.617083D-02 -0.745597D-02  0.617083D-02
               11            12            13            14            15 
     11  0.831571D-01
     12 -0.524839D-01  0.831571D-01
     13  0.617083D-02 -0.617083D-02  0.831571D-01
     14 -0.745597D-02  0.751296D-02  0.524839D-01  0.831571D-01
     15  0.751296D-02 -0.745597D-02 -0.524839D-01 -0.524839D-01  0.831571D-01
 FormGI is forming the generalized inverse of G from B-inverse, IUseBI=4.
 Force constants in internal coordinates: 
                1             2             3             4             5 
      1  0.188125D+00
      2  0.439318D-02  0.188125D+00
      3  0.439318D-02  0.439318D-02  0.188125D+00
      4  0.439318D-02  0.439318D-02  0.439318D-02  0.188125D+00
      5  0.161192D-02  0.161192D-02 -0.101214D-02 -0.221170D-02  0.161682D-01
      6  0.252627D-02 -0.651940D-03  0.281149D-02 -0.468582D-02 -0.678310D-02
      7  0.493681D-02 -0.396216D-02 -0.438592D-02  0.341127D-02 -0.105679D-01
      8 -0.651939D-03  0.252627D-02  0.281149D-02 -0.468582D-02 -0.678310D-02
      9 -0.396216D-02  0.493681D-02 -0.438592D-02  0.341127D-02 -0.105679D-01
     10 -0.446090D-02 -0.446090D-02  0.416100D-02  0.476079D-02  0.185338D-01
     11  0.312198D-02  0.312198D-02  0.220375D-02 -0.844770D-02  0.114943D-01
     12 -0.257104D-02 -0.257104D-02  0.661125D-02 -0.146917D-02 -0.685890D-02
     13  0.338547D-02 -0.595651D-02  0.330562D-02 -0.734583D-03 -0.342945D-02
     14  0.595651D-02 -0.338547D-02 -0.330562D-02  0.734583D-03  0.342945D-02
                6             7             8             9            10 
      6  0.308793D-01
      7 -0.185375D-01  0.603095D-01
      8 -0.996053D-03  0.189339D-01  0.308793D-01
      9  0.189339D-01 -0.285815D-01 -0.185375D-01  0.603095D-01
     10 -0.234965D-01 -0.215565D-01 -0.234965D-01 -0.215565D-01  0.715722D-01
     11  0.999213D-02 -0.127002D-01  0.999213D-02 -0.127002D-01 -0.607809D-02
     12  0.806484D-02 -0.648639D-02  0.806484D-02 -0.648639D-02  0.370200D-02
     13  0.120788D-01  0.102758D-02 -0.401397D-02 -0.751397D-02  0.185100D-02
     14  0.401397D-02  0.751397D-02 -0.120788D-01 -0.102758D-02 -0.185100D-02
               11            12            13            14 
     11  0.263154D-01
     12  0.147697D-02  0.163446D-01
     13  0.738483D-03  0.817229D-02  0.165562D-01
     14 -0.738483D-03 -0.817229D-02  0.838394D-02  0.165562D-01
 Leave Link  716 at Tue Jun 23 22:00:41 2026, MaxMem=  1879048192 cpu:               0.0 elap:               0.0
 (Enter /CH/g16/l103.exe)

 GradGradGradGradGradGradGradGradGradGradGradGradGradGradGradGradGradGrad
 Berny optimization.
 Red2BG is reusing G-inverse.
 Internal  Forces:  Max     0.000063642 RMS     0.000034018
 Search for a local minimum.
 Step number   1 out of a maximum of    2
 All quantities printed in internal units (Hartrees-Bohrs-Radians)
 Second derivative matrix not updated -- analytic derivatives used.
 The second derivative matrix:
                          R1        R2        R3        R4        A1
           R1           0.18812
           R2           0.00439   0.18812
           R3           0.00439   0.00439   0.18812
           R4           0.00439   0.00439   0.00439   0.18812
           A1           0.00161   0.00161  -0.00101  -0.00221   0.01617
           A2           0.00253  -0.00065   0.00281  -0.00469  -0.00678
           A3           0.00494  -0.00396  -0.00439   0.00341  -0.01057
           A4          -0.00065   0.00253   0.00281  -0.00469  -0.00678
           A5          -0.00396   0.00494  -0.00439   0.00341  -0.01057
           A6          -0.00446  -0.00446   0.00416   0.00476   0.01853
           D1           0.00312   0.00312   0.00220  -0.00845   0.01149
           D2          -0.00257  -0.00257   0.00661  -0.00147  -0.00686
           D3           0.00339  -0.00596   0.00331  -0.00073  -0.00343
           D4           0.00596  -0.00339  -0.00331   0.00073   0.00343
                          A2        A3        A4        A5        A6
           A2           0.03088
           A3          -0.01854   0.06031
           A4          -0.00100   0.01893   0.03088
           A5           0.01893  -0.02858  -0.01854   0.06031
           A6          -0.02350  -0.02156  -0.02350  -0.02156   0.07157
           D1           0.00999  -0.01270   0.00999  -0.01270  -0.00608
           D2           0.00806  -0.00649   0.00806  -0.00649   0.00370
           D3           0.01208   0.00103  -0.00401  -0.00751   0.00185
           D4           0.00401   0.00751  -0.01208  -0.00103  -0.00185
                          D1        D2        D3        D4
           D1           0.02632
           D2           0.00148   0.01634
           D3           0.00074   0.00817   0.01656
           D4          -0.00074  -0.00817   0.00838   0.01656
 ITU=  0
     Eigenvalues ---    0.03304   0.03733   0.05700   0.10681   0.10691
     Eigenvalues ---    0.18520   0.18520   0.18560   0.20130
 Angle between quadratic step and forces=   0.00 degrees.
 Linear search not attempted -- first point.
 Iteration  1 RMS(Cart)=  0.00016899 RMS(Int)=  0.00000000
 Iteration  2 RMS(Cart)=  0.00000000 RMS(Int)=  0.00000000
 ITry= 1 IFail=0 DXMaxC= 1.83D-04 DCOld= 1.00D+10 DXMaxT= 3.00D-01 DXLimC= 3.00D+00 Rises=F
 ClnCor:  largest displacement from symmetrization is 3.19D-12 for atom     3.
 Variable       Old X    -DE/DX   Delta X   Delta X   Delta X     New X
                                 (Linear)    (Quad)   (Total)
    R1        2.34686   0.00006   0.00000   0.00032   0.00032   2.34718
    R2        2.34686   0.00006   0.00000   0.00032   0.00032   2.34718
    R3        2.34686   0.00006   0.00000   0.00032   0.00032   2.34718
    R4        2.34686   0.00006   0.00000   0.00032   0.00032   2.34718
    A1        1.91063  -0.00000   0.00000  -0.00000   0.00000   1.91063
    A2        1.91063   0.00000   0.00000   0.00000   0.00000   1.91063
    A3        1.91063   0.00000   0.00000  -0.00000   0.00000   1.91063
    A4        1.91063  -0.00000   0.00000  -0.00000   0.00000   1.91063
    A5        1.91063   0.00000   0.00000   0.00000   0.00000   1.91063
    A6        1.91063  -0.00000   0.00000  -0.00000   0.00000   1.91063
    D1        2.09440  -0.00000   0.00000  -0.00000   0.00000   2.09440
    D2       -2.09440  -0.00000   0.00000   0.00000   0.00000  -2.09440
    D3        2.09440   0.00000   0.00000   0.00000   0.00000   2.09440
    D4       -2.09440   0.00000   0.00000   0.00000   0.00000  -2.09440
         Item               Value     Threshold  Converged?
 Maximum Force            0.000064     0.000450     YES
 RMS     Force            0.000034     0.000300     YES
 Maximum Displacement     0.000183     0.001800     YES
 RMS     Displacement     0.000169     0.001200     YES
 Predicted change in Energy=-4.024035D-08
 Optimization completed.
    -- Stationary point found.
                           ----------------------------
                           !   Optimized Parameters   !
                           ! (Angstroms and Degrees)  !
 --------------------------                            --------------------------
 ! Name  Definition              Value          Derivative Info.                !
 --------------------------------------------------------------------------------
 ! R1    R(1,2)                  1.2419         -DE/DX =    0.0001              !
 ! R2    R(1,3)                  1.2419         -DE/DX =    0.0001              !
 ! R3    R(1,4)                  1.2419         -DE/DX =    0.0001              !
 ! R4    R(1,5)                  1.2419         -DE/DX =    0.0001              !
 ! A1    A(2,1,3)              109.4712         -DE/DX =    0.0                 !
 ! A2    A(2,1,4)              109.4712         -DE/DX =    0.0                 !
 ! A3    A(2,1,5)              109.4712         -DE/DX =    0.0                 !
 ! A4    A(3,1,4)              109.4712         -DE/DX =    0.0                 !
 ! A5    A(3,1,5)              109.4712         -DE/DX =    0.0                 !
 ! A6    A(4,1,5)              109.4712         -DE/DX =    0.0                 !
 ! D1    D(2,1,4,3)            120.0            -DE/DX =    0.0                 !
 ! D2    D(2,1,5,3)           -120.0            -DE/DX =    0.0                 !
 ! D3    D(2,1,5,4)            120.0            -DE/DX =    0.0                 !
 ! D4    D(3,1,5,4)           -120.0            -DE/DX =    0.0                 !
 --------------------------------------------------------------------------------
 GradGradGradGradGradGradGradGradGradGradGradGradGradGradGradGradGradGrad

 Leave Link  103 at Tue Jun 23 22:00:41 2026, MaxMem=  1879048192 cpu:               0.0 elap:               0.0
 (Enter /CH/g16/l9999.exe)
 Dipole is zero, so no output in dipole orientation.

 ----------------------------------------------------------------------

 Electric dipole moment (input orientation):
 (Debye = 10**-18 statcoulomb cm , SI units = C m)
                  (au)            (Debye)         (10**-30 SI)
   Tot        0.000000D+00      0.000000D+00      0.000000D+00
   x          0.000000D+00      0.000000D+00      0.000000D+00
   y          0.000000D+00      0.000000D+00      0.000000D+00
   z          0.000000D+00      0.000000D+00      0.000000D+00

 Dipole polarizability, Alpha (input orientation).
 (esu units = cm**3 , SI units = C**2 m**2 J**-1)
 Alpha(0;0):
               (au)            (10**-24 esu)      (10**-40 SI)
   iso        0.291668D+02      0.432208D+01      0.480896D+01
   aniso      0.000000D+00      0.000000D+00      0.000000D+00
   xx         0.291668D+02      0.432208D+01      0.480896D+01
   yx         0.000000D+00      0.000000D+00      0.000000D+00
   yy         0.291668D+02      0.432208D+01      0.480896D+01
   zx         0.000000D+00      0.000000D+00      0.000000D+00
   zy         0.000000D+00      0.000000D+00      0.000000D+00
   zz         0.291668D+02      0.432208D+01      0.480896D+01

 ----------------------------------------------------------------------
 Unable to Open any file for archive entry.
 1\1\GINC-NODE0-CHCLUSTER\Freq\RB3LYP\def2SVP\B1H4(1-)\LS\23-Jun-2026\0
 \\#P Geom=AllCheck Guess=TCheck SCRF=Check GenChk RB3LYP/def2SVP Freq\
 \BH4m_anion D1 (T19 screen)\\-1,1\B,0.,0.,0.\H,0.7170138426,0.71701384
 26,0.7170138426\H,0.7170138426,-0.7170138426,-0.7170138426\H,-0.717013
 8426,0.7170138426,-0.7170138426\H,-0.7170138426,-0.7170138426,0.717013
 8426\\Version=ES64L-G16RevC.02\State=1-A1\HF=-27.3339891\RMSD=8.137e-1
 9\RMSF=3.286e-05\ZeroPoint=0.0343433\Thermal=0.0372728\ETot=-27.296716
 3\HTot=-27.2957721\GTot=-27.3172524\Dipole=0.,0.,0.\DipoleDeriv=0.3571
 816,0.,0.,0.,0.3571816,0.,0.,0.,0.3571816,-0.3392954,-0.1733295,-0.173
 3295,-0.1733295,-0.3392954,-0.1733295,-0.1733295,-0.1733295,-0.3392954
 ,-0.3392954,0.1733295,0.1733295,0.1733295,-0.3392954,-0.1733295,0.1733
 295,-0.1733295,-0.3392954,-0.3392954,0.1733295,-0.1733295,0.1733295,-0
 .3392954,0.1733295,-0.1733295,0.1733295,-0.3392954,-0.3392954,-0.17332
 95,0.1733295,-0.1733295,-0.3392954,0.1733295,0.1733295,0.1733295,-0.33
 92954\Polar=29.1668251,0.,29.1668251,0.,0.,29.1668251\Quadrupole=0.,0.
 ,0.,0.,0.,0.\PG=TD [O(B1),4C3(H1)]\NImag=0\\0.30468051,0.,0.30468051,0
 .,0.,0.30468051,-0.07617013,-0.04497092,-0.04497092,0.08315706,-0.0449
 7092,-0.07617013,-0.04497092,0.05248387,0.08315706,-0.04497092,-0.0449
 7092,-0.07617013,0.05248387,0.05248387,0.08315706,-0.07617013,0.044970
 92,0.04497092,0.00792501,-0.00617083,-0.00617083,0.08315706,0.04497092
 ,-0.07617013,-0.04497092,0.00617083,-0.00745597,-0.00751296,-0.0524838
 7,0.08315706,0.04497092,-0.04497092,-0.07617013,0.00617083,-0.00751296
 ,-0.00745597,-0.05248387,0.05248387,0.08315706,-0.07617013,0.04497092,
 -0.04497092,-0.00745597,0.00617083,-0.00751296,-0.00745597,0.00751296,
 -0.00617083,0.08315706,0.04497092,-0.07617013,0.04497092,-0.00617083,0
 .00792501,-0.00617083,0.00751296,-0.00745597,0.00617083,-0.05248387,0.
 08315706,-0.04497092,0.04497092,-0.07617013,-0.00751296,0.00617083,-0.
 00745597,0.00617083,-0.00617083,0.00792501,0.05248387,-0.05248387,0.08
 315706,-0.07617013,-0.04497092,0.04497092,-0.00745597,-0.00751296,0.00
 617083,-0.00745597,-0.00617083,0.00751296,0.00792501,0.00617083,-0.006
 17083,0.08315706,-0.04497092,-0.07617013,0.04497092,-0.00751296,-0.007
 45597,0.00617083,0.00617083,0.00792501,-0.00617083,-0.00617083,-0.0074
 5597,0.00751296,0.05248387,0.08315706,0.04497092,0.04497092,-0.0761701
 3,-0.00617083,-0.00617083,0.00792501,0.00751296,0.00617083,-0.00745597
 ,0.00617083,0.00751296,-0.00745597,-0.05248387,-0.05248387,0.08315706\
 \0.,0.,0.,-0.00003674,-0.00003674,-0.00003674,-0.00003674,0.00003674,0
 .00003674,0.00003674,-0.00003674,0.00003674,0.00003674,0.00003674,-0.0
 0003674\\\@
 The archive entry for this job was punched.


 The theorems and results in mathematical physics are
 not theorems and results about Nature, but about our
 description of it.
                   --Gerard 't Hooft
 Job cpu time:       0 days  0 hours  0 minutes 13.8 seconds.
 Elapsed time:       0 days  0 hours  0 minutes  2.5 seconds.
 File lengths (MBytes):  RWF=     10 Int=      0 D2E=      0 Chk=      3 Scr=      1
 Normal termination of Gaussian 16 at Tue Jun 23 22:00:41 2026.
