172
Lattice="12.836 0 0 6.418 11.116 0 0 0 55" Properties=species:S:1:pos:R:3:forces:R:3 energy=-124873.763497 charge=0 pbc="T T T"
Mg 0.00000000 1.85271700 16.00000000 0.000000 0.000000 0.000000
Mg 3.20900000 1.85271700 16.00000000 0.000000 0.000000 0.000000
Mg 6.41800000 1.85271700 16.00000000 0.000000 0.000000 0.000000
Mg 9.62700000 1.85271700 16.00000000 0.000000 0.000000 0.000000
Mg 1.60450000 4.63179300 16.00000000 0.000000 0.000000 0.000000
Mg 4.81350000 4.63179300 16.00000000 0.000000 0.000000 0.000000
Mg 8.02250000 4.63179300 16.00000000 0.000000 0.000000 0.000000
Mg 11.23150000 4.63179300 16.00000000 0.000000 0.000000 0.000000
Mg 3.20900000 7.41086800 16.00000000 0.000000 0.000000 0.000000
Mg 6.41800000 7.41086800 16.00000000 0.000000 0.000000 0.000000
Mg 9.62700000 7.41086800 16.00000000 0.000000 0.000000 0.000000
Mg 12.83600000 7.41086800 16.00000000 0.000000 0.000000 0.000000
Mg 4.81350000 10.18994400 16.00000000 0.000000 0.000000 0.000000
Mg 8.02250000 10.18994400 16.00000000 0.000000 0.000000 0.000000
Mg 11.23150000 10.18994400 16.00000000 0.000000 0.000000 0.000000
Mg 14.44050000 10.18994400 16.00000000 0.000000 0.000000 0.000000
Mg 0.00000000 0.00000000 18.60550000 0.000000 0.000000 0.000000
Mg 3.20900000 0.00000000 18.60550000 0.000000 0.000000 0.000000
Mg 6.41800000 0.00000000 18.60550000 0.000000 0.000000 0.000000
Mg 9.62700000 0.00000000 18.60550000 0.000000 0.000000 0.000000
Mg 1.60450000 2.77907600 18.60550000 0.000000 0.000000 0.000000
Mg 4.81350000 2.77907600 18.60550000 0.000000 0.000000 0.000000
Mg 8.02250000 2.77907600 18.60550000 0.000000 0.000000 0.000000
Mg 11.23150000 2.77907600 18.60550000 0.000000 0.000000 0.000000
Mg 3.20900000 5.55815100 18.60550000 0.000000 0.000000 0.000000
Mg 6.41800000 5.55815100 18.60550000 0.000000 0.000000 0.000000
Mg 9.62700000 5.55815100 18.60550000 0.000000 0.000000 0.000000
Mg 12.83600000 5.55815100 18.60550000 0.000000 0.000000 0.000000
Mg 4.81350000 8.33722700 18.60550000 0.000000 0.000000 0.000000
Mg 8.02250000 8.33722700 18.60550000 0.000000 0.000000 0.000000
Mg 11.23150000 8.33722700 18.60550000 0.000000 0.000000 0.000000
Mg 14.44050000 8.33722700 18.60550000 0.000000 0.000000 0.000000
Mg -1.63565673 1.32894731 21.13694199 0.000000 0.000000 0.000000
Mg 1.82832641 0.16298206 22.46052149 0.000000 0.000000 0.000000
Mg 4.43030181 0.26769989 21.44957794 0.000000 0.000000 0.000000
Mg 8.11142346 0.77312957 20.90194588 0.000000 0.000000 0.000000
Mg -0.24426921 3.62072177 21.86135973 0.000000 0.000000 0.000000
Mg 3.09404540 2.93896108 21.80524767 0.000000 0.000000 0.000000
Mg 6.52134854 1.59182397 23.47647249 0.000000 0.000000 0.000000
Mg 6.30795819 3.35071631 21.47202163 0.000000 0.000000 0.000000
Mg 1.77703248 5.98953289 21.04685082 0.000000 0.000000 0.000000
Mg 4.16917479 7.05405354 21.29736923 0.000000 0.000000 0.000000
Mg 9.33712534 4.26411954 21.51014390 0.000000 0.000000 0.000000
Mg 11.24510997 6.73471124 20.93762793 0.000000 0.000000 0.000000
Mg 3.18395033 9.75248723 21.07160998 0.000000 0.000000 0.000000
Mg 6.18755095 9.31031793 20.86780074 0.000000 0.000000 0.000000
Mg 8.96279501 8.70104459 21.36873081 0.000000 0.000000 0.000000
Mg 12.93369484 9.42482371 21.77137060 0.000000 0.000000 0.000000
Mg -1.46630623 -0.98378789 23.73516760 0.000000 0.000000 0.000000
Mg 1.42033034 -0.73710441 25.37993264 0.000000 0.000000 0.000000
Mg 5.25735294 -0.89978848 24.34029769 0.000000 0.000000 0.000000
Mg 8.52106789 -1.09816031 24.15545485 0.000000 0.000000 0.000000
Mg -0.20642827 1.49612919 24.42702497 0.000000 0.000000 0.000000
Mg 3.66413011 2.05440865 24.81243503 0.000000 0.000000 0.000000
Mg 7.91378062 1.97916293 26.26003472 0.000000 0.000000 0.000000
Mg 9.46412679 2.38576573 23.32825590 0.000000 0.000000 0.000000
Mg 1.67994812 4.55016414 23.82996795 0.000000 0.000000 0.000000
Mg 4.86282903 5.26696710 24.24964481 0.000000 0.000000 0.000000
Mg 7.87408533 4.82439194 24.38848238 0.000000 0.000000 0.000000
Mg 10.93729305 4.72711925 23.90973299 0.000000 0.000000 0.000000
Mg 2.93460366 7.43970087 23.82708440 0.000000 0.000000 0.000000
Mg 6.52377012 7.82075211 23.46216890 0.000000 0.000000 0.000000
Mg 9.67135359 7.79864442 24.25679102 0.000000 0.000000 0.000000
Mg 12.83940448 7.22537190 23.57780887 0.000000 0.000000 0.000000
Mg 8.46776838 4.08086745 30.97062668 -9.521758 -5.056053 6.002231
Mg 7.76734411 5.45719952 28.43016715 -12.166018 -3.349413 -5.338319
Cl 7.43728962 7.02799031 31.74898404 1.049486 -1.576665 -1.302484
Cl 5.42425529 5.10985488 28.50839471 1.284674 0.170809 0.022713
Cl 4.49346886 5.44442839 31.67400851 -0.365648 -0.260890 -0.299549
O  5.59772860 2.27288539 31.78122559 -0.401051 0.616883 -0.192465
C  4.55310965 2.16563775 30.67083206 2.220273 2.471363 0.573273
C  5.41826387 2.03182618 29.41014588 -0.721911 -2.439253 -0.695390
C  6.87147634 2.01202147 29.93943651 1.671918 -1.201145 -0.971068
C  6.77413176 2.83825717 31.17083805 -1.821204 -4.014862 2.037748
H  4.06672089 3.15272871 30.70220729 -0.272426 -0.133612 -0.016924
H  3.92545693 1.36342678 30.94028674 -0.669060 -1.155676 0.336392
H  5.21706501 2.88401882 28.74243449 0.258744 -0.582206 -0.058366
H  5.14834111 0.99404693 28.94969861 0.679958 1.753754 0.319241
H  7.67035867 2.35738205 29.21800637 -0.694282 -0.145757 -0.058577
H  7.22715632 0.98402327 30.28241112 -0.645047 0.950538 -0.537749
H  6.65125812 3.84678773 31.04402384 -1.758537 3.770781 -0.735111
H  7.52741009 2.72237947 31.98446636 0.242156 -0.886549 0.373331
O  4.37339495 8.53735083 33.37573924 -0.245573 1.570007 -0.696923
C  3.62687541 9.65225679 33.99080910 0.972066 -1.290591 0.569842
C  3.68381941 10.85119626 33.08322474 0.797713 -0.073731 -0.567250
C  3.52546144 10.04263472 31.69785087 -0.695523 1.027484 0.528488
C  4.41928214 8.82945989 31.92985614 -0.793136 -0.272099 0.730241
H  4.09050251 9.73077409 34.96838581 0.167520 0.387360 0.466473
H  2.60962376 9.33262397 34.14110060 -0.865639 -0.167558 0.031386
H  4.71965354 11.36558176 33.19844875 -1.404316 -0.839420 -0.515752
H  3.58427748 12.61051687 35.14859214 -0.850830 0.767520 -0.312570
H  3.83205717 10.69614273 30.87308664 0.084453 -0.135621 -0.279800
H  2.42044241 9.73835592 31.51191638 1.698376 0.462545 0.503240
H  5.45964873 8.92358454 31.59054934 -0.009689 0.039783 0.103379
H  3.94367911 7.96011214 31.49642787 0.272850 -0.673925 -0.616048
O  3.98512895 6.70123109 25.71900250 -1.455537 -1.199596 0.705379
C  4.79691018 7.57782788 26.55028423 -0.021928 -1.893153 1.867567
C  3.90282731 8.07610120 27.67706740 0.065316 0.705899 -0.536117
C  2.88441468 6.94917165 27.92716358 0.001828 -0.240353 -1.296803
C  2.96517396 6.00728933 26.67159998 -0.164708 0.851550 0.275227
H  5.23850276 8.27177062 25.91385717 0.602939 1.715543 -1.174911
H  5.58528396 6.92948692 26.94495942 0.148475 0.173554 0.028061
H  3.45848147 9.00577449 27.31647037 -0.556860 0.161391 -0.009139
H  4.48829761 8.36750553 28.56219682 -0.012069 -0.362841 0.062662
H  1.84913109 7.27516801 27.99247529 -0.162523 0.430191 0.376773
H  3.19930726 6.38848709 28.80026966 -0.185615 -0.215236 0.444994
H  2.03277997 5.89650749 26.03682179 0.800968 0.264437 0.780583
H  3.30115025 5.03174426 27.05413130 0.351499 0.006635 -0.834314
O  6.33314886 8.25217280 35.65931931 0.786379 0.049394 -0.139245
C  7.14601927 9.44970732 35.18062258 0.863944 -2.635253 0.582520
C  8.48708438 9.27760838 35.91678502 -0.342440 0.933537 0.641096
C  8.14437095 8.54296215 37.22075531 1.386386 -0.968147 -1.178529
C  6.91456830 7.68655650 36.89406398 0.789405 1.148372 -0.703461
H  6.56742024 10.29537394 35.45769193 -0.453673 1.217997 0.192817
H  7.30014609 9.35629957 34.09171968 -0.440512 0.018921 0.185260
H  9.14371618 10.19208215 36.05529156 -0.896513 -0.925429 -0.234795
H  9.05032813 8.50016416 35.47319462 0.907067 -0.336973 -1.709142
H  8.01823957 9.27463694 37.96930826 -0.417403 0.520186 1.541952
H  9.03452872 7.89878925 37.38595390 -0.398162 0.353508 0.716121
H  6.24323583 7.94583209 37.65654904 -1.694560 -0.069334 1.330683
H  7.08172315 6.58110205 36.95454651 -0.183962 0.665078 -0.942063
O  9.25301870 4.57862355 29.31598708 0.541096 -1.354137 -0.925108
C  9.48737437 5.80868715 28.59045693 6.279670 3.248036 1.292593
C  10.99104738 6.12908065 28.77267261 -0.922307 -1.062346 1.414133
C  11.28461530 5.37376551 30.15141259 1.357698 1.283778 0.006992
C  10.05936064 4.62657742 30.55859175 7.360542 1.468262 -2.857621
H  8.74668448 6.55333917 29.11333426 2.520412 1.113417 0.202242
H  9.27411653 5.61726832 27.52337004 0.534040 -0.102213 -0.734367
H  11.15553470 7.22140610 28.88193887 0.196525 -0.484584 -0.363226
H  11.54200397 5.57054581 27.99890412 0.000686 0.720323 -0.217208
H  11.52464999 6.12454844 30.90070262 -0.177512 0.377373 0.544644
H  12.20987072 4.78194717 30.11446109 -0.310340 -0.364341 -0.251622
H  9.45858211 5.09788275 31.28471735 2.259660 4.178049 1.927985
H  10.17123999 3.56432238 30.79870034 1.307682 -0.683908 0.038969
O  5.28712776 5.48494189 35.06120650 -0.685523 -0.717708 -0.494917
C  3.77747952 5.33957039 35.05000890 1.688877 -0.234619 -0.245814
C  3.53514462 3.83892670 35.25064136 -1.580046 0.688478 -0.765337
C  4.90576747 3.20825476 35.15642026 0.007914 -0.043582 1.647668
C  5.80539219 4.19068395 34.49641707 -1.227157 2.199813 -0.959267
H  3.37596423 5.70876551 34.07285343 0.436588 0.024668 0.529261
H  3.41012121 5.88890498 35.90475371 -0.025889 0.771668 0.147992
H  2.83121297 3.55123098 34.42920490 0.466293 -0.390855 0.642738
H  3.06624853 3.64373694 36.23727566 0.050322 -0.084659 -0.512862
H  4.77971092 2.23436082 34.75300766 0.530163 -1.152857 -0.511328
H  5.24484248 3.18045510 36.21170550 0.182464 -0.589396 -0.378235
H  5.68141119 4.33079126 33.38332035 -0.159807 -0.394250 0.528347
H  6.86587680 4.12159356 34.70289952 0.447318 0.055509 0.462824
Al 5.04701067 -0.72516160 33.27066546 -0.373031 -1.589984 0.353105
Cl 4.90834517 -1.00249964 31.13100858 0.363473 -0.306616 -1.057128
Cl 3.28451077 0.36286956 33.68912996 -0.747315 0.571597 0.181677
C  6.67706844 -0.00943278 33.98661131 -0.173089 0.522833 -1.273943
C  7.59910246 0.34979328 33.06484392 0.763582 -1.039151 -1.116294
C  9.00991189 0.78257927 33.33265072 -1.114244 0.291832 1.405762
C  8.94418857 1.50874222 34.74755026 1.465428 -0.326386 -0.401526
C  8.09326586 0.78218613 35.79670658 0.602162 0.122458 -0.681011
C  7.00736829 0.08417975 35.36768218 1.434597 0.886026 1.309685
H  7.49876107 0.15342049 31.97898061 -0.776996 0.012648 0.580903
H  9.09765105 1.52100860 32.53626076 0.811338 0.969087 -0.355633
H  8.55636032 2.55006655 34.51843177 0.482584 -0.746424 0.684925
H  8.52382985 0.79242219 36.81994080 -0.797271 0.012841 -0.512081
H  6.41721820 -0.39944308 36.10861547 -0.673839 -0.548736 0.559958
C  4.93945089 -2.66520788 33.89783361 -0.173011 0.388385 -1.214116
C  4.12943146 -3.60611883 33.22833114 -0.430981 -0.312960 0.421719
C  3.93799812 -4.91431153 33.65330033 1.162573 -0.859429 0.476463
C  4.72984271 -5.45282088 34.69862271 0.397778 0.959636 0.103140
C  5.59278134 -4.56320539 35.37274199 -0.425404 1.359236 -1.162211
C  5.70298359 -3.17336903 34.91780361 0.094207 -2.049107 1.972510
H  3.54451237 -3.32275259 32.39418275 -0.717751 0.647659 -0.880531
H  3.22209074 -5.58680613 33.17083347 -0.243632 0.159447 -0.064825
H  4.73296351 -6.51245644 34.94765246 -0.307367 0.060461 0.168160
H  6.12429159 -4.88406886 36.25317694 0.434135 -0.160903 0.157276
H  6.34833771 -2.50314683 35.48105938 0.184280 -0.144297 0.113648
172
Lattice="12.836 0 0 6.418 11.116 0 0 0 55" Properties=species:S:1:pos:R:3:forces:R:3 energy=-124875.398649 charge=0 pbc="T T T"
Mg 0.00000000 1.85271700 16.00000000 0.000000 0.000000 0.000000
Mg 3.20900000 1.85271700 16.00000000 0.000000 0.000000 0.000000
Mg 6.41800000 1.85271700 16.00000000 0.000000 0.000000 0.000000
Mg 9.62700000 1.85271700 16.00000000 0.000000 0.000000 0.000000
Mg 1.60450000 4.63179300 16.00000000 0.000000 0.000000 0.000000
Mg 4.81350000 4.63179300 16.00000000 0.000000 0.000000 0.000000
Mg 8.02250000 4.63179300 16.00000000 0.000000 0.000000 0.000000
Mg 11.23150000 4.63179300 16.00000000 0.000000 0.000000 0.000000
Mg 3.20900000 7.41086800 16.00000000 0.000000 0.000000 0.000000
Mg 6.41800000 7.41086800 16.00000000 0.000000 0.000000 0.000000
Mg 9.62700000 7.41086800 16.00000000 0.000000 0.000000 0.000000
Mg 12.83600000 7.41086800 16.00000000 0.000000 0.000000 0.000000
Mg 4.81350000 10.18994400 16.00000000 0.000000 0.000000 0.000000
Mg 8.02250000 10.18994400 16.00000000 0.000000 0.000000 0.000000
Mg 11.23150000 10.18994400 16.00000000 0.000000 0.000000 0.000000
Mg 14.44050000 10.18994400 16.00000000 0.000000 0.000000 0.000000
Mg 0.00000000 0.00000000 18.60550000 0.000000 0.000000 0.000000
Mg 3.20900000 0.00000000 18.60550000 0.000000 0.000000 0.000000
Mg 6.41800000 0.00000000 18.60550000 0.000000 0.000000 0.000000
Mg 9.62700000 0.00000000 18.60550000 0.000000 0.000000 0.000000
Mg 1.60450000 2.77907600 18.60550000 0.000000 0.000000 0.000000
Mg 4.81350000 2.77907600 18.60550000 0.000000 0.000000 0.000000
Mg 8.02250000 2.77907600 18.60550000 0.000000 0.000000 0.000000
Mg 11.23150000 2.77907600 18.60550000 0.000000 0.000000 0.000000
Mg 3.20900000 5.55815100 18.60550000 0.000000 0.000000 0.000000
Mg 6.41800000 5.55815100 18.60550000 0.000000 0.000000 0.000000
Mg 9.62700000 5.55815100 18.60550000 0.000000 0.000000 0.000000
Mg 12.83600000 5.55815100 18.60550000 0.000000 0.000000 0.000000
Mg 4.81350000 8.33722700 18.60550000 0.000000 0.000000 0.000000
Mg 8.02250000 8.33722700 18.60550000 0.000000 0.000000 0.000000
Mg 11.23150000 8.33722700 18.60550000 0.000000 0.000000 0.000000
Mg 14.44050000 8.33722700 18.60550000 0.000000 0.000000 0.000000
Mg -1.63565673 1.32894731 21.13694199 0.000000 0.000000 0.000000
Mg 1.82832641 0.16298206 22.46052149 0.000000 0.000000 0.000000
Mg 4.43030181 0.26769989 21.44957794 0.000000 0.000000 0.000000
Mg 8.11142346 0.77312957 20.90194588 0.000000 0.000000 0.000000
Mg -0.24426921 3.62072177 21.86135973 0.000000 0.000000 0.000000
Mg 3.09404540 2.93896108 21.80524767 0.000000 0.000000 0.000000
Mg 6.52134854 1.59182397 23.47647249 0.000000 0.000000 0.000000
Mg 6.30795819 3.35071631 21.47202163 0.000000 0.000000 0.000000
Mg 1.77703248 5.98953289 21.04685082 0.000000 0.000000 0.000000
Mg 4.16917479 7.05405354 21.29736923 0.000000 0.000000 0.000000
Mg 9.33712534 4.26411954 21.51014390 0.000000 0.000000 0.000000
Mg 11.24510997 6.73471124 20.93762793 0.000000 0.000000 0.000000
Mg 3.18395033 9.75248723 21.07160998 0.000000 0.000000 0.000000
Mg 6.18755095 9.31031793 20.86780074 0.000000 0.000000 0.000000
Mg 8.96279501 8.70104459 21.36873081 0.000000 0.000000 0.000000
Mg 12.93369484 9.42482371 21.77137060 0.000000 0.000000 0.000000
Mg -1.46630623 -0.98378789 23.73516760 0.000000 0.000000 0.000000
Mg 1.42033034 -0.73710441 25.37993264 0.000000 0.000000 0.000000
Mg 5.25735294 -0.89978848 24.34029769 0.000000 0.000000 0.000000
Mg 8.52106789 -1.09816031 24.15545485 0.000000 0.000000 0.000000
Mg -0.20642827 1.49612919 24.42702497 0.000000 0.000000 0.000000
Mg 3.66413011 2.05440865 24.81243503 0.000000 0.000000 0.000000
Mg 7.91378062 1.97916293 26.26003472 0.000000 0.000000 0.000000
Mg 9.46412679 2.38576573 23.32825590 0.000000 0.000000 0.000000
Mg 1.67994812 4.55016414 23.82996795 0.000000 0.000000 0.000000
Mg 4.86282903 5.26696710 24.24964481 0.000000 0.000000 0.000000
Mg 7.87408533 4.82439194 24.38848238 0.000000 0.000000 0.000000
Mg 10.93729305 4.72711925 23.90973299 0.000000 0.000000 0.000000
Mg 2.93460366 7.43970087 23.82708440 0.000000 0.000000 0.000000
Mg 6.52377012 7.82075211 23.46216890 0.000000 0.000000 0.000000
Mg 9.67135359 7.79864442 24.25679102 0.000000 0.000000 0.000000
Mg 12.83940448 7.22537190 23.57780887 0.000000 0.000000 0.000000
Mg 8.51297329 3.75751200 30.71778788 -5.540404 -1.917543 1.667083
Mg 7.95861267 5.31131361 28.10991212 -13.590521 -4.808767 -3.283399
Cl 7.38617058 6.69394676 30.79650673 1.142626 -1.443111 -1.009551
Cl 5.56437951 5.05221456 27.86990451 0.910174 0.061196 -0.226265
Cl 4.37139715 5.08197272 31.24444963 -0.315746 -0.091820 -0.247520
O  5.48376131 1.92256872 31.52053077 0.395707 0.506901 -0.082387
C  4.42090575 1.96539252 30.48208814 0.205108 0.939752 0.640599
C  5.15185508 1.82108515 29.17269594 1.236956 -2.308043 0.512712
C  6.62745693 2.24428736 29.47490973 0.618495 -0.113938 -0.746934
C  6.59311326 2.65269115 30.98060218 -0.484598 -1.476321 0.007417
H  3.82129031 2.91091001 30.60536632 0.685972 -0.527612 -0.126883
H  3.82128355 1.10029533 30.65574856 -0.599318 -0.828145 0.566149
H  4.73875050 2.35723601 28.38026096 -0.771802 1.365394 -1.432035
H  5.13577629 0.72882196 28.85112929 0.194186 1.047896 0.416497
H  6.88730947 3.10074641 28.77651667 -0.178231 -0.802287 0.526310
H  7.31768606 1.35966946 29.28291813 -0.521009 1.019532 0.329438
H  6.41681420 3.72967890 31.18510817 -0.360012 0.584683 -0.292099
H  7.56837784 2.30202294 31.51346333 -1.052434 -0.550722 0.171257
O  4.42201366 8.00690625 32.72214454 -0.317480 -0.127175 1.143796
C  3.91827557 9.07700641 33.61673908 -1.369794 -1.836800 -0.142275
C  4.20729656 10.37446324 32.88296851 0.300034 1.156435 0.004064
C  4.65949658 9.90303949 31.43486976 -0.574596 -1.556374 1.790710
C  4.15496483 8.39832732 31.38957505 2.543676 0.710422 -0.355865
H  4.36616000 8.92336322 34.60875206 0.567434 0.101346 -0.309383
H  2.81715267 8.86938146 33.82654454 0.807936 0.483981 -0.630979
H  5.04238594 10.85100326 33.42591855 0.231704 -0.049381 -0.430337
H  3.94546171 12.46356644 34.55307205 0.299320 -0.156052 0.885141
H  5.73466877 9.91496933 31.46679280 0.783006 -0.263957 -0.252238
H  4.34544926 10.48993921 30.62333738 -0.775738 1.183739 -1.177060
H  4.77948341 7.72085801 30.70164534 -0.779251 0.844298 0.958525
H  3.12035604 8.29684639 31.12280099 -1.019739 0.040967 -0.186755
O  3.62427209 6.47448958 25.55908258 -0.379229 -0.161307 -0.287964
C  4.62877961 7.51419196 25.88921579 -0.995121 -0.834939 3.554213
C  3.87710552 8.30661735 26.98656705 2.389689 -2.213703 0.820886
C  3.05599675 7.25926503 27.72977831 0.005366 -0.145203 2.404537
C  2.70335951 6.22837256 26.69991529 0.694811 -2.373524 0.896500
H  4.75003153 8.01208217 24.97349203 0.609476 1.121367 -1.014368
H  5.53586606 6.97647907 26.25347534 -0.346901 0.577402 -0.174789
H  3.30716314 9.05480693 26.60218615 -2.116296 2.192300 -1.682753
H  4.58074795 8.83677097 27.59873582 0.710692 0.162627 0.824986
H  2.14886371 7.67682282 28.21879696 0.134717 0.155455 -0.581754
H  3.56632878 6.81245394 28.64129375 0.094810 0.260253 -1.126774
H  1.64546619 6.26708022 26.47654325 -0.341607 0.355816 -1.180758
H  2.90099270 5.12751484 26.94373615 -0.071310 1.372584 0.227628
O  6.42084959 8.06748190 35.29601630 1.904051 0.361920 0.534337
C  7.34038034 9.24718578 35.00027536 -2.777248 0.346248 0.596956
C  7.88956889 9.68415879 36.35413680 -0.395851 0.355952 0.000742
C  8.12306867 8.28238424 36.92712727 3.215393 -0.113858 1.967608
C  7.00425626 7.41797064 36.51361686 -1.036344 -2.394742 -2.126192
H  6.55330927 9.91214526 34.56971470 1.018538 0.079460 -0.093364
H  8.18912159 9.09835583 34.34009667 -0.151346 -0.638366 -0.554580
H  7.22107423 10.37645780 36.92628809 0.187319 -0.797313 -0.271268
H  8.83487767 10.21492441 36.20499217 0.169181 0.083644 0.065588
H  8.24411245 8.22222677 38.05404459 -0.048215 0.346208 -0.944335
H  9.16010183 7.93286848 36.52567419 -1.702283 0.303720 0.428868
H  6.21151263 7.30090823 37.29149266 0.251895 0.126653 -0.566319
H  7.31955307 6.32468091 36.15509397 -0.507459 2.031959 0.982925
O  9.36447745 4.44893832 29.01262468 1.384615 -1.623749 1.585551
C  9.63619915 5.68856109 28.35343881 6.603446 1.222589 -2.384099
C  11.08922344 5.98532202 28.55826052 -0.370877 0.559800 1.851474
C  11.21682103 5.54380148 30.07674817 0.965614 -0.220784 0.009928
C  10.03199473 4.61429569 30.35531528 5.211522 3.555049 -0.875949
H  8.87343557 6.37100707 28.69393709 2.142718 3.305141 2.011151
H  9.38184407 5.43723458 27.24530905 1.766135 0.286091 -0.100886
H  11.31592350 7.04613294 28.46836552 -0.128491 0.477842 0.129702
H  11.78276355 5.48116491 27.89745380 -0.137368 -0.681326 -0.380959
H  11.20852933 6.43720891 30.74860000 -0.016940 -0.476851 -0.229040
H  12.12557078 4.93477978 30.23175699 0.085223 0.505450 0.050409
H  9.35086150 5.14741371 31.07454128 0.768275 1.464938 -0.055576
H  10.24620476 3.57783414 30.67975842 1.545130 -0.171288 -0.160957
O  5.14361427 5.54240172 34.67370958 -0.786751 -0.224302 0.331598
C  3.96317564 4.68475611 35.02440575 0.898028 0.696817 -2.309805
C  4.49489025 3.27751262 35.21997467 0.996660 0.883740 0.976967
C  5.96949026 3.35237189 34.65810214 -1.038638 -1.828472 -1.735041
C  6.16448846 4.73768761 34.02155936 -0.732026 0.114614 1.570603
H  3.33088200 4.76045916 34.09605747 0.093680 -0.122865 0.754027
H  3.46052403 5.11179034 35.87976056 -0.099719 0.454908 0.345141
H  3.85194947 2.55931034 34.76974297 -0.346845 -0.862588 -1.054226
H  4.47153332 2.98388876 36.27553179 0.330099 0.203461 0.193509
H  5.98887353 2.51255945 33.88626546 0.486759 0.926827 0.747974
H  6.69714093 3.13334036 35.41439947 0.486567 -0.142308 0.592363
H  6.05533158 4.69901671 32.91187960 -0.202408 0.460158 0.345138
H  7.08872789 5.26926687 34.35384409 -0.275568 -0.488569 -0.540976
Al 5.37159849 -1.38058319 32.81346901 -0.756975 0.006688 0.948730
Cl 5.18776899 -1.88630801 30.60163619 0.244089 0.037327 0.284183
Cl 3.51827730 -0.11447259 33.30597950 0.683153 -0.401243 -0.286496
C  7.05478694 -0.39272424 33.35441713 0.645176 -0.937442 -1.152131
C  8.13359691 -0.36186561 32.49939746 0.228258 1.459528 0.491301
C  9.50677626 0.33221139 32.89354071 -2.382579 -1.292067 1.120745
C  9.33210495 1.23824930 34.22082358 0.511761 -0.742881 -0.937986
C  8.32463312 0.71916702 35.21807051 0.490166 -0.044182 -0.880366
C  7.29051304 -0.02018633 34.73824761 0.233321 0.668158 0.574961
H  8.04815799 -0.78961484 31.49472671 0.117176 0.132617 0.068448
H  9.73442342 1.10567101 32.19946745 0.453252 0.543927 -1.451437
H  9.14223909 2.28424609 33.90225045 -0.623702 -0.079664 -0.061198
H  8.45423868 0.93938016 36.28026967 -0.113024 -0.080101 -0.170311
H  6.57181491 -0.34782770 35.46072353 -0.608323 -0.290986 0.481012
C  4.95747325 -3.09387148 33.91544493 1.594916 -0.198693 -0.009352
C  3.74775232 -3.73118610 33.72188052 -0.913312 -0.694545 0.218648
C  3.39207371 -4.98239922 34.28270930 -0.410879 0.637192 -0.748671
C  4.25730496 -5.60366107 35.16209850 0.415826 -0.777461 0.172476
C  5.40908724 -4.92427124 35.58985683 0.043894 0.693384 -1.598196
C  5.80711060 -3.77475427 34.83773644 0.425936 0.479358 1.388656
H  3.02583681 -3.20927540 33.14607249 -0.938576 0.260134 -0.792227
H  2.39544200 -5.41383551 34.08111674 0.525649 0.127713 -0.159897
H  4.11095187 -6.67071948 35.36409701 -0.226504 0.333685 0.720067
H  6.00379035 -5.29966761 36.40772925 0.406469 -0.217652 0.007518
H  6.78760413 -3.33193535 35.12168316 -0.554900 -0.181843 -0.273969
172
Lattice="12.836 0 0 6.418 11.116 0 0 0 55" Properties=species:S:1:pos:R:3:forces:R:3 energy=-124874.111274 charge=0 pbc="T T T"
Mg 0.00000000 1.85271700 16.00000000 0.000000 0.000000 0.000000
Mg 3.20900000 1.85271700 16.00000000 0.000000 0.000000 0.000000
Mg 6.41800000 1.85271700 16.00000000 0.000000 0.000000 0.000000
Mg 9.62700000 1.85271700 16.00000000 0.000000 0.000000 0.000000
Mg 1.60450000 4.63179300 16.00000000 0.000000 0.000000 0.000000
Mg 4.81350000 4.63179300 16.00000000 0.000000 0.000000 0.000000
Mg 8.02250000 4.63179300 16.00000000 0.000000 0.000000 0.000000
Mg 11.23150000 4.63179300 16.00000000 0.000000 0.000000 0.000000
Mg 3.20900000 7.41086800 16.00000000 0.000000 0.000000 0.000000
Mg 6.41800000 7.41086800 16.00000000 0.000000 0.000000 0.000000
Mg 9.62700000 7.41086800 16.00000000 0.000000 0.000000 0.000000
Mg 12.83600000 7.41086800 16.00000000 0.000000 0.000000 0.000000
Mg 4.81350000 10.18994400 16.00000000 0.000000 0.000000 0.000000
Mg 8.02250000 10.18994400 16.00000000 0.000000 0.000000 0.000000
Mg 11.23150000 10.18994400 16.00000000 0.000000 0.000000 0.000000
Mg 14.44050000 10.18994400 16.00000000 0.000000 0.000000 0.000000
Mg 0.00000000 0.00000000 18.60550000 0.000000 0.000000 0.000000
Mg 3.20900000 0.00000000 18.60550000 0.000000 0.000000 0.000000
Mg 6.41800000 0.00000000 18.60550000 0.000000 0.000000 0.000000
Mg 9.62700000 0.00000000 18.60550000 0.000000 0.000000 0.000000
Mg 1.60450000 2.77907600 18.60550000 0.000000 0.000000 0.000000
Mg 4.81350000 2.77907600 18.60550000 0.000000 0.000000 0.000000
Mg 8.02250000 2.77907600 18.60550000 0.000000 0.000000 0.000000
Mg 11.23150000 2.77907600 18.60550000 0.000000 0.000000 0.000000
Mg 3.20900000 5.55815100 18.60550000 0.000000 0.000000 0.000000
Mg 6.41800000 5.55815100 18.60550000 0.000000 0.000000 0.000000
Mg 9.62700000 5.55815100 18.60550000 0.000000 0.000000 0.000000
Mg 12.83600000 5.55815100 18.60550000 0.000000 0.000000 0.000000
Mg 4.81350000 8.33722700 18.60550000 0.000000 0.000000 0.000000
Mg 8.02250000 8.33722700 18.60550000 0.000000 0.000000 0.000000
Mg 11.23150000 8.33722700 18.60550000 0.000000 0.000000 0.000000
Mg 14.44050000 8.33722700 18.60550000 0.000000 0.000000 0.000000
Mg -1.63565673 1.32894731 21.13694199 0.000000 0.000000 0.000000
Mg 1.82832641 0.16298206 22.46052149 0.000000 0.000000 0.000000
Mg 4.43030181 0.26769989 21.44957794 0.000000 0.000000 0.000000
Mg 8.11142346 0.77312957 20.90194588 0.000000 0.000000 0.000000
Mg -0.24426921 3.62072177 21.86135973 0.000000 0.000000 0.000000
Mg 3.09404540 2.93896108 21.80524767 0.000000 0.000000 0.000000
Mg 6.52134854 1.59182397 23.47647249 0.000000 0.000000 0.000000
Mg 6.30795819 3.35071631 21.47202163 0.000000 0.000000 0.000000
Mg 1.77703248 5.98953289 21.04685082 0.000000 0.000000 0.000000
Mg 4.16917479 7.05405354 21.29736923 0.000000 0.000000 0.000000
Mg 9.33712534 4.26411954 21.51014390 0.000000 0.000000 0.000000
Mg 11.24510997 6.73471124 20.93762793 0.000000 0.000000 0.000000
Mg 3.18395033 9.75248723 21.07160998 0.000000 0.000000 0.000000
Mg 6.18755095 9.31031793 20.86780074 0.000000 0.000000 0.000000
Mg 8.96279501 8.70104459 21.36873081 0.000000 0.000000 0.000000
Mg 12.93369484 9.42482371 21.77137060 0.000000 0.000000 0.000000
Mg -1.46630623 -0.98378789 23.73516760 0.000000 0.000000 0.000000
Mg 1.42033034 -0.73710441 25.37993264 0.000000 0.000000 0.000000
Mg 5.25735294 -0.89978848 24.34029769 0.000000 0.000000 0.000000
Mg 8.52106789 -1.09816031 24.15545485 0.000000 0.000000 0.000000
Mg -0.20642827 1.49612919 24.42702497 0.000000 0.000000 0.000000
Mg 3.66413011 2.05440865 24.81243503 0.000000 0.000000 0.000000
Mg 7.91378062 1.97916293 26.26003472 0.000000 0.000000 0.000000
Mg 9.46412679 2.38576573 23.32825590 0.000000 0.000000 0.000000
Mg 1.67994812 4.55016414 23.82996795 0.000000 0.000000 0.000000
Mg 4.86282903 5.26696710 24.24964481 0.000000 0.000000 0.000000
Mg 7.87408533 4.82439194 24.38848238 0.000000 0.000000 0.000000
Mg 10.93729305 4.72711925 23.90973299 0.000000 0.000000 0.000000
Mg 2.93460366 7.43970087 23.82708440 0.000000 0.000000 0.000000
Mg 6.52377012 7.82075211 23.46216890 0.000000 0.000000 0.000000
Mg 9.67135359 7.79864442 24.25679102 0.000000 0.000000 0.000000
Mg 12.83940448 7.22537190 23.57780887 0.000000 0.000000 0.000000
Mg 8.24358339 3.71551631 30.23836445 -7.186067 -3.006719 4.026241
Mg 8.04333415 5.57341957 28.22050150 -14.261126 -2.483738 -3.126688
Cl 7.20029385 6.68962778 31.34530641 1.007027 -0.841390 -1.692051
Cl 5.89084498 4.74840990 27.67295308 0.622135 0.002184 0.001018
Cl 4.23268827 4.55395709 30.76468312 -0.139914 -0.336968 -0.502273
O  5.59049076 1.72621736 30.94640561 0.575965 0.932994 -0.833458
C  4.63631347 1.35236813 29.86936344 1.754407 1.299802 -0.541787
C  5.54996670 1.22637534 28.62982149 -0.587102 -2.568329 -1.574472
C  7.01414262 1.22619490 29.12537883 -0.899317 1.389025 -0.752850
C  6.77594007 2.15678167 30.27405063 -1.367795 -0.668775 1.301015
H  3.86516626 2.11492477 29.71236262 0.153738 0.270609 0.325819
H  4.25479436 0.47531941 30.26282321 -1.082675 -2.148753 0.470616
H  5.32683786 2.07365403 27.99293478 0.299265 0.481506 -0.383212
H  5.38297040 0.28360705 27.96242186 -0.034439 1.334800 1.208186
H  7.71808610 1.65947852 28.35164350 -0.296654 -0.306087 0.706121
H  7.38584457 0.29410676 29.47769035 0.263992 -1.091596 0.235583
H  6.65970867 3.22626390 29.91736270 -1.799517 -0.126222 -0.398151
H  7.51027740 2.13538116 31.08070948 0.694634 -0.618479 0.898512
O  4.39694614 7.69008460 32.75100344 0.107621 -0.450828 -0.230990
C  3.96176801 8.98275998 33.17855257 2.368261 -0.463340 1.957756
C  4.28169944 9.98757316 32.09815518 0.189578 0.264370 -0.218184
C  4.40869339 9.04898102 30.84900958 -0.238892 0.142582 0.105895
C  3.96092035 7.65034431 31.40002416 1.843445 -0.100078 -1.346351
H  4.48950145 9.15315883 34.17320239 -0.757720 -0.026663 -1.028239
H  2.91494956 8.91091124 33.26669685 -1.537374 0.124421 0.589156
H  5.21911736 10.53326610 32.27996421 0.199452 -0.339297 0.053191
H  4.17370938 12.02481727 33.87618554 -0.783642 -0.230281 -0.611208
H  5.50737886 9.01492494 30.59686361 -1.029904 -0.150390 -0.216912
H  3.74555022 9.35523723 30.00721605 0.650617 0.040893 0.290061
H  4.46071853 6.81162704 30.78248641 -0.547879 0.805532 1.317643
H  2.89807090 7.45685981 31.38859778 -0.782646 0.153514 -0.308000
O  4.29928667 6.93609162 25.72426512 -0.523437 -0.806224 -0.218042
C  5.22240985 7.83894978 26.41260139 -1.064509 0.439971 0.237736
C  4.28123152 8.60450960 27.32276199 -0.733260 0.460177 0.289651
C  3.23048738 7.56226848 27.83624773 2.378012 -1.225772 -1.211834
C  3.22731864 6.48272371 26.69215628 0.574286 -0.230674 1.168466
H  5.69302105 8.51424047 25.67289731 -0.167303 -0.275817 0.018843
H  5.99782151 7.23844849 26.86796172 0.301913 -0.144027 0.456873
H  3.63058140 9.24521374 26.68103706 0.933931 0.470064 0.185262
H  4.81252640 9.16747315 28.14728590 -0.658411 -0.398318 -0.826170
H  2.24800909 7.98360726 27.97083055 -0.364265 0.120710 0.636652
H  3.75239221 7.06126318 28.64686241 -0.838335 -0.088961 0.984608
H  2.27725678 6.49676278 26.15171342 -0.028743 -0.191573 -0.249117
H  3.48805667 5.41715963 27.05234289 -0.393647 1.589019 -0.475778
O  6.89167666 8.21917590 34.28550173 -0.807632 -1.466394 0.539492
C  7.67226718 9.36038137 34.38075744 1.456058 -0.259302 0.252222