276
Lattice="12.836 0 0 6.418 11.116 0 0 0 55" Properties=species:S:1:pos:R:3:forces:R:3 energy=-136948.522398 charge=0 pbc="T T T"
Mg 0.00000000 1.85270000 16.00000000 0.000000 0.000000 0.000000
Mg 3.20900000 1.85270000 16.00000000 0.000000 0.000000 0.000000
Mg 6.41800000 1.85270000 16.00000000 0.000000 0.000000 0.000000
Mg 9.62700000 1.85270000 16.00000000 0.000000 0.000000 0.000000
Mg 1.60450000 4.63180000 16.00000000 0.000000 0.000000 0.000000
Mg 4.81350000 4.63180000 16.00000000 0.000000 0.000000 0.000000
Mg 8.02250000 4.63180000 16.00000000 0.000000 0.000000 0.000000
Mg 11.23150000 4.63180000 16.00000000 0.000000 0.000000 0.000000
Mg 3.20900000 7.41090000 16.00000000 0.000000 0.000000 0.000000
Mg 6.41800000 7.41090000 16.00000000 0.000000 0.000000 0.000000
Mg 9.62700000 7.41090000 16.00000000 0.000000 0.000000 0.000000
Mg 12.83600000 7.41090000 16.00000000 0.000000 0.000000 0.000000
Mg 4.81350000 10.18990000 16.00000000 0.000000 0.000000 0.000000
Mg 8.02250000 10.18990000 16.00000000 0.000000 0.000000 0.000000
Mg 11.23150000 10.18990000 16.00000000 0.000000 0.000000 0.000000
Mg 14.44050000 10.18990000 16.00000000 0.000000 0.000000 0.000000
Mg 0.00000000 0.00000000 18.60550000 0.000000 0.000000 0.000000
Mg 3.20900000 0.00000000 18.60550000 0.000000 0.000000 0.000000
Mg 6.41800000 0.00000000 18.60550000 0.000000 0.000000 0.000000
Mg 9.62700000 0.00000000 18.60550000 0.000000 0.000000 0.000000
Mg 1.60450000 2.77910000 18.60550000 0.000000 0.000000 0.000000
Mg 4.81350000 2.77910000 18.60550000 0.000000 0.000000 0.000000
Mg 8.02250000 2.77910000 18.60550000 0.000000 0.000000 0.000000
Mg 11.23150000 2.77910000 18.60550000 0.000000 0.000000 0.000000
Mg 3.20900000 5.55820000 18.60550000 0.000000 0.000000 0.000000
Mg 6.41800000 5.55820000 18.60550000 0.000000 0.000000 0.000000
Mg 9.62700000 5.55820000 18.60550000 0.000000 0.000000 0.000000
Mg 12.83600000 5.55820000 18.60550000 0.000000 0.000000 0.000000
Mg 4.81350000 8.33720000 18.60550000 0.000000 0.000000 0.000000
Mg 8.02250000 8.33720000 18.60550000 0.000000 0.000000 0.000000
Mg 11.23150000 8.33720000 18.60550000 0.000000 0.000000 0.000000
Mg 14.44050000 8.33720000 18.60550000 0.000000 0.000000 0.000000
Mg -0.30016275 2.01878001 21.32242569 0.000000 0.000000 0.000000
Mg 3.13408764 1.59506619 21.38786406 0.000000 0.000000 0.000000
Mg 6.19554255 1.77826672 21.72224184 0.000000 0.000000 0.000000
Mg 9.68127330 1.46083945 21.10922268 0.000000 0.000000 0.000000
Mg 2.71145594 4.36133794 21.67560249 0.000000 0.000000 0.000000
Mg 5.60785753 4.95309832 21.00975909 0.000000 0.000000 0.000000
Mg 7.99952335 4.47878508 21.19714329 0.000000 0.000000 0.000000
Mg 11.81137802 4.87983358 22.13511797 0.000000 0.000000 0.000000
Mg 3.52418406 7.68596624 21.04522634 0.000000 0.000000 0.000000
Mg 6.72073405 7.57011362 20.97463806 0.000000 0.000000 0.000000
Mg 10.01150377 7.32768673 21.21145303 0.000000 0.000000 0.000000
Mg 13.24460568 7.41293907 21.29438374 0.000000 0.000000 0.000000
Mg 5.06361816 10.08708825 21.14165346 0.000000 0.000000 0.000000
Mg 8.35932680 10.32021473 21.16107376 0.000000 0.000000 0.000000
Mg 11.51702031 10.11600122 21.79772010 0.000000 0.000000 0.000000
Mg 14.66685313 10.09531177 21.56646251 0.000000 0.000000 0.000000
Mg 0.32256877 -1.46647846 23.91432360 0.000000 0.000000 0.000000
Mg 2.90121720 -1.61073976 23.58214757 0.000000 0.000000 0.000000
Mg 7.11661360 -2.64534640 23.84103282 0.000000 0.000000 0.000000
Mg 9.80593651 -1.38009262 24.13000425 0.000000 0.000000 0.000000
Mg 1.52880833 1.74710320 23.83192142 0.000000 0.000000 0.000000
Mg 4.17355925 1.17807290 24.12859730 0.000000 0.000000 0.000000
Mg 7.79647584 0.75607253 23.84935944 0.000000 0.000000 0.000000
Mg 11.67599225 1.48195280 23.84211543 0.000000 0.000000 0.000000
Mg 5.76639509 2.63034064 27.02520055 0.000000 0.000000 0.000000
Mg 6.25302228 3.94422047 24.14950518 0.000000 0.000000 0.000000
Mg 9.09171136 3.39983753 23.90845985 0.000000 0.000000 0.000000
Mg 12.35353070 3.88570745 26.12285930 0.000000 0.000000 0.000000
Mg 5.01353443 6.90687205 24.10811299 0.000000 0.000000 0.000000
Mg 8.24313543 6.53887483 23.59893478 0.000000 0.000000 0.000000
Mg 11.14466739 6.69249042 24.94452874 0.000000 0.000000 0.000000
Mg 14.93520203 5.93457076 23.79992247 0.000000 0.000000 0.000000
Mg 5.51826324 7.84014763 31.25871679 0.314838 1.288969 -0.087098
Mg 9.17111080 3.79082135 27.73718305 0.173564 0.305015 -2.878594
Cl 5.59094864 5.22954918 34.48060951 0.087385 -0.204315 -0.281416
Cl 6.08926916 9.98382495 30.62270421 0.055143 -0.226540 -0.169551
Cl 8.97023959 5.43442771 25.68043053 -0.144511 0.403721 0.753104
O  9.43020152 1.78268901 28.26360039 0.046853 -0.162269 0.264823
C  8.97111043 0.92207585 27.17407763 -0.702582 -0.784228 0.171290
C  9.08855608 -0.53047700 27.74967346 -1.015874 2.101626 -0.121014
C  9.04582492 -0.39026170 29.28120608 1.984477 1.896012 -2.535931
C  9.73318808 0.96991581 29.51013661 -1.741166 0.039352 -0.189104
H  9.53441817 1.11148598 26.24373523 0.475064 -0.092368 0.357075
H  7.90949217 1.18849552 26.83766934 0.823661 -0.214594 0.834269
H  9.96848657 -0.95329629 27.34603796 1.256475 -0.833764 -0.227328
H  8.22838040 -1.04386504 27.40097950 -0.818594 -1.063100 -0.522646
H  9.65249989 -1.13690677 29.68617157 0.796338 -1.431116 0.971594
H  8.07774246 -0.39876282 29.62553080 -2.427817 -0.149828 1.015908
H  10.79170097 0.78611340 29.58622189 0.717312 0.505698 0.120325
H  9.26373667 1.51842295 30.35944912 0.675985 -0.103090 -0.458238
O  4.21127466 8.02254010 32.98292220 0.429177 -0.351141 -1.030528
C  4.21734119 8.90877449 34.18424799 -0.851132 0.385431 0.094660
C  3.93557710 10.32293997 33.63059402 -1.785995 -0.741553 0.301567
C  3.13833108 10.04045445 32.34771122 -2.328882 -1.207388 1.575103
C  3.07483115 8.48026793 32.18729513 0.147387 1.994772 1.378631
H  5.25128256 8.93351384 34.57729936 -0.552555 -0.726257 0.424463
H  3.32592371 8.49381094 34.75545189 1.444986 0.487764 0.024441
H  4.87137301 10.71010323 33.29062321 0.932983 0.829972 0.175126
H  5.06769936 11.50832484 35.52738213 -0.346234 -0.316107 0.784892
H  3.55152318 10.52420967 31.53957011 1.353948 0.857978 -1.844694
H  2.10829418 10.43134501 32.39952392 0.044711 -0.154589 0.184196
H  3.22386009 8.21810284 31.15613814 -0.049656 -0.643203 -0.999762
H  2.12964973 8.08785329 32.58440279 0.069664 -0.258366 -0.015469
O  7.78517152 12.94036046 28.38680070 -0.548037 0.405223 -0.283880
C  7.22972131 11.90194774 27.60512838 -0.247276 0.344674 -2.436431
C  8.04515492 10.63574971 27.80014070 -1.028644 -0.432335 0.393793
C  9.34143588 11.19940108 28.32685359 -0.128920 -0.559548 0.993526
C  8.90583338 12.42751280 29.07425846 0.426521 0.438562 2.618858
H  7.28697956 12.18584065 26.45693202 -0.285855 -0.157283 1.793375
H  6.18694091 11.79962912 27.88638648 -0.582652 -0.130048 -0.133314
H  8.16075845 10.14402788 26.82630383 0.009462 -0.410972 0.116430
H  7.49307738 10.00743228 28.55407000 0.783784 0.172857 -0.713218
H  10.00341658 11.45958162 27.55780452 0.995981 0.626329 -1.760980
H  9.91201677 10.49979868 28.91373297 0.187103 -0.498869 0.741439
H  9.62718153 13.26267995 29.08979349 0.280672 -0.259962 0.071734
H  8.65754823 12.18952965 30.19189483 0.187957 0.302387 -1.669454
O  7.21803535 9.62395831 35.04047962 0.471256 -1.798525 0.090509
C  8.01682583 8.80409781 34.05621503 0.185456 2.254481 -0.051441
C  8.16497389 7.45459583 34.62773096 -1.257163 -2.094349 -0.525017
C  8.23653642 7.58551554 36.14205620 -1.392704 -0.238163 0.521692
C  7.48639105 8.95753858 36.36252293 -0.679000 -0.274931 0.435966
H  8.97218179 9.32089420 34.08535589 0.555873 0.091859 -0.454613
H  7.63590970 8.91601983 32.98547508 -0.131593 -0.152722 1.251324
H  9.00466213 6.89684202 34.23145147 0.694073 0.016759 -0.234153
H  7.28437572 6.82468942 34.33661868 0.294288 0.336068 0.442178
H  9.24897799 7.62715615 36.50475256 0.763087 0.294925 0.115334
H  7.76895385 6.66870378 36.68505864 0.317858 1.559622 -0.924021
H  8.06014325 9.64257676 37.03036349 -0.322595 -0.317278 -0.549812
H  6.47966249 8.77239710 36.80496862 0.437791 0.198784 -0.154647
O  9.15323208 4.27333893 29.94867654 0.842622 -0.551287 -0.730146
C  8.15748332 5.26750320 29.84370211 -1.445049 1.738039 0.514103
C  8.52083166 6.29599096 30.93276169 -2.400371 0.651184 1.882535
C  10.02875782 6.27057395 31.03481663 -0.378703 -0.440114 0.915787
C  10.26528527 4.80556273 30.77875042 0.075642 -0.859415 1.466306
H  7.12244939 4.84713192 29.92869441 0.693234 0.004170 0.215126
H  8.19779233 5.75040321 28.87158430 0.035330 0.330214 -0.724461
H  7.99103063 5.90120901 31.91347797 1.190497 0.771918 -1.415913
H  8.17651679 7.37741832 30.82336709 0.013292 -1.125229 -0.320870
H  10.33193598 6.61914130 32.05921688 0.153313 -0.287895 -0.746807
H  10.51674822 6.84205693 30.26753181 0.214388 0.744309 -0.447677
H  10.14475319 4.24659499 31.73053528 0.534406 0.024958 -0.395425
H  11.20981836 4.62674387 30.28423722 0.353270 -0.508904 -0.227801
O  2.28071569 6.76020222 35.06863040 0.004559 -0.751528 1.486825
C  1.86644765 5.56965804 34.35688745 0.037172 0.625928 0.067657
C  1.38434693 4.55179613 35.40020700 0.914775 -0.418279 -0.830675
C  2.10905399 4.96368182 36.69384147 -1.460808 0.980689 0.540446
C  2.86067019 6.25873135 36.39393790 -0.273493 0.172741 -1.578096
H  2.74661974 5.35140665 33.79129723 0.754911 -1.110387 -0.672103
H  1.04169495 5.80938312 33.66890924 0.086144 0.371038 0.018610
H  1.67502520 3.47977214 35.15501973 -0.882864 1.114410 -0.007895
H  0.31189350 4.79152321 35.46002921 0.035112 -0.893285 0.318442
H  2.76226559 4.17465016 37.06727779 -0.066520 -0.032722 0.319749
H  1.27770970 5.25097465 37.36081193 0.457404 -0.561050 0.581539
H  3.91156169 5.94020427 36.27167778 0.107971 0.847346 -0.299480
H  2.70121388 7.13098655 37.05159018 0.174972 -0.514179 0.076443
Al 5.92675392 -1.48048045 36.07957315 -0.223148 0.187206 0.796552
Cl 6.30874573 -3.09119318 37.49377473 -0.422152 -0.567231 0.520786
Cl 5.16108563 -2.46624105 34.29845572 0.098315 0.029792 -0.548668
C  7.80213272 -0.81293572 35.96977514 -1.984095 -0.273875 -0.173347
C  8.13795066 -0.11175669 34.88077210 1.361109 0.127166 -0.789015
C  9.57127007 0.22732123 34.61094410 1.399293 0.406219 -1.025238
C  10.42362986 0.46264447 35.87232938 -0.653073 -0.473056 0.381828
C  9.97540097 -0.50085466 37.02433411 0.626174 1.291904 -1.199665
C  8.74435596 -1.10501472 36.99661450 1.813003 -0.080562 1.160819
H  7.44889402 0.13488882 34.08318554 -0.431116 0.058315 -0.003812
H  9.61616192 1.17932906 34.05108225 -0.138456 -0.111930 -0.147160
H  10.32124702 1.52247421 36.20695166 -0.124328 -0.474237 0.063881
H  10.69880794 -0.46926060 37.83585370 -0.243504 -0.669141 0.361974
H  8.45479470 -1.80246857 37.81245884 0.187652 0.516755 -0.613698
C  4.44474591 -0.29001744 36.82306688 0.347543 -0.661820 1.414525
C  3.42807758 0.25152298 36.04145339 1.588095 -0.372684 -0.010294
C  2.34082642 0.86395932 36.62976516 -0.811628 0.373638 -0.587066
C  2.22104628 1.04759610 38.00923226 0.517946 0.190697 0.672241
C  3.20708880 0.45589667 38.87133134 -0.583813 0.514982 -0.451963
C  4.25682218 -0.22795436 38.26111360 -0.134813 0.056628 -1.901385
H  3.63145805 0.14796887 34.97659223 -0.869386 0.258967 -0.217890
H  1.54953793 1.09740706 35.92346465 -0.351218 0.582441 0.281560
H  1.43262532 1.73356807 38.37563289 0.244935 -0.718659 0.021565
H  3.16075287 0.50171719 39.98061306 -0.203097 0.239807 -0.973656
H  4.95169093 -0.83344938 38.78166380 0.701524 -0.321635 1.178228
Si 4.68440747 4.48878315 44.15297358 1.561506 -1.460779 1.700252
Si 5.27437905 1.46600057 45.18557168 -0.549726 -0.654063 -0.003143
Si 7.53004249 4.79004174 42.99413423 0.195600 -0.409781 -0.813166
Si 8.23936092 1.77675391 44.01066410 -1.108578 0.769115 -1.830760
Si 3.70170419 3.20461617 41.56082665 -1.483066 1.207143 -0.487174
Si 4.33722209 0.29126943 42.58133100 0.048291 0.636891 0.196508
Si 6.49581711 3.45288024 40.31101616 -1.768621 -1.161171 -0.767662
Si 7.22183214 0.53738150 41.28003052 -0.275844 -0.291393 0.099491
O  4.64402941 2.96814360 44.98580758 -0.028031 0.979252 -0.680476
O  6.27864944 5.01120264 44.00628323 -0.922706 -0.024240 0.147883
O  4.07239135 4.34483984 42.68656157 -0.230130 0.167726 -0.532519
O  6.85393187 1.54299694 44.84348337 0.769267 -0.005869 0.074501
O  4.61632418 0.29437584 44.19584534 -0.033850 0.009038 0.122724
O  8.23263059 3.37890045 43.41860139 0.747091 -1.095839 0.868805
O  6.90694216 4.50017082 41.44346059 0.515126 1.014799 0.667501
O  8.12513844 0.84279714 42.59091255 0.708191 0.496566 2.257565
O  3.69935032 1.80533199 42.34059467 -0.013856 -1.313942 0.203817
O  4.77985974 3.20291145 40.34642754 2.467405 0.467057 -0.759011
O  5.70996341 0.00762784 41.76154006 0.661946 0.626810 -0.508538
O  7.23048187 2.00770980 40.48941575 -0.239096 -0.468238 -0.194127
C  3.87674052 5.75676671 45.18057510 -0.897526 -0.602356 0.118215
C  2.96779428 6.64792991 44.34615856 -1.235856 -0.601358 -0.405213
C  2.12092936 7.59529413 45.19129228 1.392611 0.047711 0.455425
O  1.11026257 6.85295566 45.88373224 -0.443073 -0.135837 -0.709981
H  4.67138821 6.38847387 45.52999224 0.651405 0.283073 0.766431
H  3.33980385 5.25584340 46.02682475 0.263164 0.493380 -0.477232
H  2.27708041 6.04718696 43.70858577 0.080416 0.108957 0.512966
H  3.51962798 7.16973167 43.57096250 0.470902 0.564760 -0.045193
H  1.74000165 8.36869165 44.52819672 -0.620036 0.388013 -0.003136
H  2.76851702 8.07334127 45.96882135 -0.220051 0.037071 -0.637536
C  5.03375115 0.69691100 46.87550436 -0.980006 1.267855 1.298114
C  3.62017422 0.05323696 47.20877488 -0.946719 0.668863 1.768968
C  2.39196611 0.86071680 46.68757261 0.363615 -1.271224 0.785460
O  2.26762612 2.17975418 47.19932793 0.826512 0.720548 0.695397
H  5.26910241 1.58322509 47.55948284 -0.420776 -0.960525 -0.340359
H  5.78305883 -0.04592643 47.14107994 0.452041 -0.136718 -0.317808
H  3.41787023 -0.10243467 48.34915106 0.842798 0.361194 -1.583996
H  3.50714602 -0.95876533 46.80321046 0.322780 -0.080769 -0.214397
H  1.42869460 0.32579381 46.85350256 0.471502 0.006351 0.306095
H  2.50990288 0.82248869 45.62346926 -0.039697 0.793449 -1.176889
C  8.72660526 6.26609289 42.97692675 -0.978547 -0.676328 -0.952862
C  9.53806899 6.27333325 44.21477574 2.215251 -0.749382 2.537762
C  10.36451643 7.55201687 44.53061348 0.074949 0.204481 -0.042450
O  9.46906829 8.59117658 44.96938699 -0.538208 1.433836 -0.056932
H  8.14104414 7.18431896 43.01564809 -0.382763 0.204592 -0.371715
H  9.30942335 6.25628217 42.03319607 -0.088038 0.051389 0.320794
H  10.27679309 5.38663779 44.27260414 -1.012207 1.074031 -0.082607
H  8.89015323 6.20220214 45.11505947 0.057489 -0.391095 -0.321196
H  10.90714366 7.83426621 43.63187339 0.336896 0.294479 -0.341319
H  11.10622340 7.41892503 45.33818220 -0.034013 -0.497996 -0.251324
C  9.73483156 1.35523666 45.01581807 -0.037491 -0.178467 -1.969824
C  10.93659915 1.81802386 44.16055757 1.639259 1.569011 2.368746
C  12.31053404 1.28614198 44.82735269 -1.241141 1.861465 -1.248529
H  9.80092379 0.26568526 45.01613861 -0.263932 -0.374735 0.388097
H  9.70044851 1.72845459 46.01932803 0.051394 0.349127 0.744654
H  10.94649540 2.97086326 44.11188457 0.083331 -1.639231 -0.206280
H  10.83943368 1.39227264 43.19914820 -0.078899 -0.197781 -1.544419
C  1.98528862 3.68457043 40.90851312 1.255399 -0.637952 1.365131
C  0.92565509 3.97960792 41.94807821 -2.418172 -0.429166 0.026278
C  -0.53087691 4.13823969 41.25619642 1.027640 -0.077952 0.174616
H  1.64865211 2.83209549 40.37839659 -0.410012 -1.330109 -0.875539
H  2.11364867 4.41925113 40.14654746 0.000485 1.123876 -0.595701
H  1.02032737 4.90357921 42.48597271 0.682048 0.815481 0.274393
H  0.86721217 3.21812762 42.76820972 0.148595 0.196637 -0.707795
C  3.16082833 -0.97798447 42.05328748 -0.077362 -1.676347 -0.149317
C  1.70282950 -0.67477468 42.35378567 0.005897 -1.212862 -1.503911
C  0.64272858 -1.61337523 41.66711052 1.455941 -0.776557 0.175997
H  3.39650986 -1.98438134 42.45316613 0.269793 0.357032 0.048153
H  3.36526079 -1.09706117 40.98379830 -0.188713 -0.064631 -0.230805
H  1.54393483 0.25224239 41.90268791 -0.599387 2.057423 -0.864247
H  1.68760616 -0.43949433 43.37854227 -0.941211 -0.280059 1.818793
C  7.02862309 4.08375734 38.54424960 -2.142892 0.288278 -0.861234
C  6.71025420 3.21310981 37.40623788 0.071268 0.030894 0.045874
C  10.74968701 3.83282416 37.32836690 1.279336 0.401332 0.075717
H  8.11032432 4.23422165 38.61750144 0.277660 0.187425 0.315014
H  6.41504979 5.01162957 38.34686808 1.032264 -0.245822 0.518309
H  6.08890603 3.54384292 36.55093753 -0.083812 0.031677 0.509170
H  7.14827176 2.22627858 37.28703539 0.255074 -0.168518 0.098988
C  7.97379613 -0.89165062 40.34467257 -1.168717 -1.053386 1.209513
C  8.99070813 -1.68850294 41.21479493 0.411015 0.544432 0.865727
C  9.67331860 -2.92959067 40.61863801 -1.980120 -0.770619 0.580089
H  8.37497049 -0.50464621 39.44062209 0.488577 0.106557 -1.140719
H  7.10382573 -1.60759974 40.13607798 1.000842 0.936939 -0.246998
H  8.42305685 -2.00263787 42.10285866 0.042638 -0.130116 0.109516
H  9.78003937 -1.02825126 41.66192941 -0.496447 -0.176682 -0.519783
H  1.15743553 7.13986780 46.79298593 -0.192969 0.078467 0.691615
H  2.94935460 2.34737448 47.91106618 -0.850216 -0.447870 -1.065496
H  9.76826308 9.53897706 44.79102223 0.143647 -1.729720 -0.001276
H  12.44791343 0.25005955 44.55488176 -0.066630 -0.686521 0.624929
H  12.22685756 1.57976387 45.87783169 0.404347 -0.690842 0.201369
H  13.18640701 1.80899600 44.40324231 -0.165966 0.077382 0.073068
H  -0.40840080 4.88646672 40.44504844 -0.251576 -0.209266 0.246149
H  -1.30164145 4.49707865 41.96557898 0.280896 -0.065987 -0.119488
H  -0.91040105 3.20554191 40.79877128 0.230292 0.142262 0.129627
H  1.04582618 -1.75958392 40.63787832 -0.473746 0.313628 0.161235
H  -0.34316312 -1.12952292 41.61453724 0.011506 -0.364087 0.114775
H  0.62342385 -2.68593273 42.03411659 -0.368749 1.226135 0.120195
H  10.99723887 4.52895704 38.14650414 -0.052585 0.311544 -0.325293
H  11.08074004 4.22191314 36.34757961 -0.032665 0.213815 0.333205
H  11.38922397 2.95314946 37.53859034 -0.778554 -0.160195 -0.107032
H  9.67496995 3.71434132 37.28932509 -0.312640 -0.656132 0.057332
H  8.89293820 -3.70895794 40.32559250 0.975555 0.694989 0.366780
H  10.39138234 -3.34910608 41.32882683 -0.106976 -0.269366 0.232169
H  10.23414218 -2.70403104 39.75948432 0.837640 0.458222 -1.619654
276
Lattice="12.836 0 0 6.418 11.116 0 0 0 55" Properties=species:S:1:pos:R:3:forces:R:3 energy=-136946.502840 charge=0 pbc="T T T"
Mg 0.00000000 1.85270000 16.00000000 0.000000 0.000000 0.000000
Mg 3.20900000 1.85270000 16.00000000 0.000000 0.000000 0.000000
Mg 6.41800000 1.85270000 16.00000000 0.000000 0.000000 0.000000
Mg 9.62700000 1.85270000 16.00000000 0.000000 0.000000 0.000000
Mg 1.60450000 4.63180000 16.00000000 0.000000 0.000000 0.000000
Mg 4.81350000 4.63180000 16.00000000 0.000000 0.000000 0.000000
Mg 8.02250000 4.63180000 16.00000000 0.000000 0.000000 0.000000
Mg 11.23150000 4.63180000 16.00000000 0.000000 0.000000 0.000000
Mg 3.20900000 7.41090000 16.00000000 0.000000 0.000000 0.000000
Mg 6.41800000 7.41090000 16.00000000 0.000000 0.000000 0.000000
Mg 9.62700000 7.41090000 16.00000000 0.000000 0.000000 0.000000
Mg 12.83600000 7.41090000 16.00000000 0.000000 0.000000 0.000000
Mg 4.81350000 10.18990000 16.00000000 0.000000 0.000000 0.000000
Mg 8.02250000 10.18990000 16.00000000 0.000000 0.000000 0.000000
Mg 11.23150000 10.18990000 16.00000000 0.000000 0.000000 0.000000
Mg 14.44050000 10.18990000 16.00000000 0.000000 0.000000 0.000000
Mg 0.00000000 0.00000000 18.60550000 0.000000 0.000000 0.000000
Mg 3.20900000 0.00000000 18.60550000 0.000000 0.000000 0.000000
Mg 6.41800000 0.00000000 18.60550000 0.000000 0.000000 0.000000
Mg 9.62700000 0.00000000 18.60550000 0.000000 0.000000 0.000000
Mg 1.60450000 2.77910000 18.60550000 0.000000 0.000000 0.000000
Mg 4.81350000 2.77910000 18.60550000 0.000000 0.000000 0.000000
Mg 8.02250000 2.77910000 18.60550000 0.000000 0.000000 0.000000
Mg 11.23150000 2.77910000 18.60550000 0.000000 0.000000 0.000000
Mg 3.20900000 5.55820000 18.60550000 0.000000 0.000000 0.000000
Mg 6.41800000 5.55820000 18.60550000 0.000000 0.000000 0.000000
Mg 9.62700000 5.55820000 18.60550000 0.000000 0.000000 0.000000
Mg 12.83600000 5.55820000 18.60550000 0.000000 0.000000 0.000000
Mg 4.81350000 8.33720000 18.60550000 0.000000 0.000000 0.000000
Mg 8.02250000 8.33720000 18.60550000 0.000000 0.000000 0.000000
Mg 11.23150000 8.33720000 18.60550000 0.000000 0.000000 0.000000
Mg 14.44050000 8.33720000 18.60550000 0.000000 0.000000 0.000000
Mg -0.30016275 2.01878001 21.32242569 0.000000 0.000000 0.000000
Mg 3.13408764 1.59506619 21.38786406 0.000000 0.000000 0.000000
Mg 6.19554255 1.77826672 21.72224184 0.000000 0.000000 0.000000
Mg 9.68127330 1.46083945 21.10922268 0.000000 0.000000 0.000000
Mg 2.71145594 4.36133794 21.67560249 0.000000 0.000000 0.000000
Mg 5.60785753 4.95309832 21.00975909 0.000000 0.000000 0.000000
Mg 7.99952335 4.47878508 21.19714329 0.000000 0.000000 0.000000
Mg 11.81137802 4.87983358 22.13511797 0.000000 0.000000 0.000000
Mg 3.52418406 7.68596624 21.04522634 0.000000 0.000000 0.000000
Mg 6.72073405 7.57011362 20.97463806 0.000000 0.000000 0.000000
Mg 10.01150377 7.32768673 21.21145303 0.000000 0.000000 0.000000
Mg 13.24460568 7.41293907 21.29438374 0.000000 0.000000 0.000000
Mg 5.06361816 10.08708825 21.14165346 0.000000 0.000000 0.000000
Mg 8.35932680 10.32021473 21.16107376 0.000000 0.000000 0.000000
Mg 11.51702031 10.11600122 21.79772010 0.000000 0.000000 0.000000
Mg 14.66685313 10.09531177 21.56646251 0.000000 0.000000 0.000000
Mg 0.32256877 -1.46647846 23.91432360 0.000000 0.000000 0.000000
Mg 2.90121720 -1.61073976 23.58214757 0.000000 0.000000 0.000000
Mg 7.11661360 -2.64534640 23.84103282 0.000000 0.000000 0.000000
Mg 9.80593651 -1.38009262 24.13000425 0.000000 0.000000 0.000000
Mg 1.52880833 1.74710320 23.83192142 0.000000 0.000000 0.000000
Mg 4.17355925 1.17807290 24.12859730 0.000000 0.000000 0.000000
Mg 7.79647584 0.75607253 23.84935944 0.000000 0.000000 0.000000
Mg 11.67599225 1.48195280 23.84211543 0.000000 0.000000 0.000000
Mg 5.76639509 2.63034064 27.02520055 0.000000 0.000000 0.000000
Mg 6.25302228 3.94422047 24.14950518 0.000000 0.000000 0.000000
Mg 9.09171136 3.39983753 23.90845985 0.000000 0.000000 0.000000
Mg 12.35353070 3.88570745 26.12285930 0.000000 0.000000 0.000000
Mg 5.01353443 6.90687205 24.10811299 0.000000 0.000000 0.000000
Mg 8.24313543 6.53887483 23.59893478 0.000000 0.000000 0.000000
Mg 11.14466739 6.69249042 24.94452874 0.000000 0.000000 0.000000
Mg 14.93520203 5.93457076 23.79992247 0.000000 0.000000 0.000000
Mg 4.91460381 7.44831086 31.16750151 0.641788 1.201444 1.872148
Mg 9.50023448 3.79099691 27.46179971 -1.369470 -0.449909 0.683066
Cl 5.04586394 5.31745140 34.37171227 0.233272 0.337622 -0.748578
Cl 6.41351096 9.11836741 30.58768941 -0.271386 -0.438868 -0.265327
Cl 9.31691644 5.42893987 25.48267855 -1.285695 0.055997 1.207057
O  10.20925227 1.72116681 27.55413526 0.093527 0.583486 -1.264522
C  9.39009225 1.34570961 26.42741524 1.191658 -1.069577 -0.346463
C  9.27240994 -0.15120201 26.48864678 -2.612085 -0.155355 1.794458
C  9.11024110 -0.35061009 28.05365818 -1.940821 -0.763412 0.124785
C  9.99227836 0.74264134 28.57140307 1.074324 0.199778 3.025307
H  9.89200451 1.72764724 25.52666422 -0.003181 -0.038938 0.101346
H  8.42632681 1.80444049 26.50480215 -1.160699 0.399645 -0.063268
H  10.13731509 -0.66294050 26.20612550 2.066632 -0.772898 -0.555216
H  8.43506447 -0.56015463 25.84646931 0.340692 0.332913 1.030321
H  9.38065099 -1.36686899 28.50351755 -0.232722 1.101014 -0.878147
H  8.03752321 -0.11486670 28.40411092 1.173525 -0.529346 -0.819985
H  11.02056761 0.32787130 28.87017213 -1.286746 0.877436 0.003707
H  9.47102181 1.35412583 29.38068019 0.888597 -1.177044 -0.276048
O  3.46893564 8.27674609 32.51105239 0.016338 -0.295104 0.340355
C  3.92905457 8.89793763 33.79283993 0.436705 1.761377 -0.632233
C  3.82869272 10.46520599 33.52950690 -1.038339 -0.846413 0.290764
C  2.94248443 10.55517828 32.26491355 0.826247 -0.700220 -1.230198
C  2.38612653 9.14260551 32.06781100 0.154394 0.442613 -0.648574
H  4.97627484 8.65700656 33.85995682 0.531550 -0.473866 0.412762
H  3.37776943 8.61956955 34.67202360 -0.680803 -0.870885 0.167955
H  4.82373729 10.67015764 33.24196163 1.377258 0.991698 -0.292715
H  5.45212921 11.54241423 35.58670983 -0.511113 0.318113 -0.511289
H  3.62958768 10.71919998 31.37726254 -0.816530 0.421603 0.780109
H  2.08660852 11.22902843 32.28034961 0.164265 0.589407 0.081038
H  2.23502091 8.96693649 30.97195386 -0.349111 -0.305222 0.790050
H  1.50229854 9.00102768 32.71287968 -0.057363 -0.411320 -0.326931
O  6.58261285 12.16758141 28.54105153 -0.328826 0.572598 0.113122
C  6.74981311 11.74585720 27.20675252 -0.395377 -2.278660 0.667592
C  8.06939574 10.95927811 27.18117622 0.164483 -0.561340 -0.721291
C  8.91420249 11.75547987 28.17914726 -1.221439 1.190147 -0.810004
C  7.83642207 12.08742021 29.22039805 0.530526 -1.008471 -0.068356
H  6.92746626 12.53376244 26.54512080 0.050065 2.074869 -1.313977
H  5.75813686 11.31108584 26.90888638 1.025232 -0.245392 -0.097036
H  8.49860661 10.79358512 26.16650998 -0.081092 0.720621 0.323264
H  8.02226090 9.95279223 27.54294325 -0.638508 -0.966142 0.550325
H  9.23977042 12.69599184 27.69970266 0.166981 -0.124084 0.053905
H  9.77414406 11.23497220 28.53653982 0.727857 -0.515188 0.485266
H  7.99376117 12.98862212 29.73432159 0.388322 1.749278 0.697918
H  7.75369768 11.32964197 29.98388072 -0.006683 -0.713106 0.383690
O  7.32413235 9.56967625 34.90222695 1.030051 -1.678021 -1.564514
C  8.30990224 9.09805086 33.78667833 -1.353371 0.560314 0.925863
C  8.82946046 7.73132150 34.21586816 -0.454539 0.500397 -0.347485
C  8.83234845 7.88857848 35.74312212 -1.548302 -2.346564 -0.595527
C  7.55023873 8.60563506 35.98499192 -0.900532 0.944400 0.546161
H  9.03206498 9.89538868 33.70001929 0.649035 0.175662 0.176058
H  7.78121883 9.06001566 32.84315399 -0.548360 0.034322 -0.285119
H  9.82744873 7.57986153 33.85108906 0.841573 -0.142795 -0.346626
H  8.15900865 6.99053230 33.72399875 0.189926 -0.073389 1.010123
H  9.59674580 8.50443136 36.06760957 2.104423 1.237741 0.355653
H  8.89066352 6.95451928 36.34296869 -0.026943 0.187218 -0.424897
H  7.65902038 9.24382734 36.85748435 -0.289097 0.043156 0.612014
H  6.71545342 7.90132334 36.11078060 -0.265313 0.200248 -0.249308
O  9.45959483 3.83357275 29.44547342 -0.424338 0.308426 -1.142772
C  8.52741795 4.88665097 29.88829632 -0.445758 0.167129 1.196645
C  9.10116180 5.22426358 31.25786078 0.809953 1.712688 -1.165783
C  10.68127590 5.27651156 30.94955991 -1.783669 -2.970991 1.224229
C  10.77388854 3.95159012 30.09395834 1.022014 1.190797 0.352359
H  7.56651444 4.41119738 29.97534128 -0.665263 -0.734539 0.173457
H  8.26290093 5.74148140 29.21580341 1.305788 -0.299403 -0.118524
H  8.72906982 4.50070053 31.96273297 0.416747 -0.588139 0.617091
H  8.74075176 6.20364698 31.57989445 0.009794 0.246611 0.205924
H  11.25917735 5.21177743 31.89822462 -0.085919 0.133814 -0.557874
H  10.90900605 6.14161937 30.38552224 0.380396 1.123699 -0.652226
H  10.92014513 3.05921558 30.70324548 -0.137776 -0.128846 0.256131
H  11.56964230 3.92566780 29.29839847 -0.544244 0.244245 0.426009
O  1.87921853 6.83342633 35.36909686 -0.176686 -0.084995 0.937974
C  1.41221982 5.91901529 34.32752891 0.709650 -0.027520 0.646980
C  1.54370144 4.46397488 34.90059875 0.977271 0.555570 0.069774
C  1.63681148 4.70361564 36.41018742 0.283828 1.822934 0.556817
C  2.39555417 6.06777157 36.52484652 -2.098853 -0.617627 -1.356156
H  2.12420397 6.13882077 33.51038202 -0.405759 -0.438245 -0.249495
H  0.37430843 6.20284200 34.06622732 0.302715 0.003330 0.061688
H  2.48689608 3.99645955 34.54359960 -0.501469 0.128266 -0.004995
H  0.68025426 3.85461561 34.67719332 -0.338398 -0.402105 -0.339990
H  2.14977856 3.99131156 37.05716012 -0.130283 -0.600918 -0.225929
H  0.65359019 4.95975800 36.79969885 -0.421407 -0.441968 0.250709
H  3.41473342 5.89830997 36.34793103 2.064852 -0.114527 -0.230988
H  2.23016400 6.60123493 37.46463777 -0.251128 0.258972 -0.117323
Al 6.24123100 -1.47487963 36.41453307 -0.048689 -0.823633 0.070031
Cl 5.98929771 -3.06194403 37.98388263 0.233115 0.083566 -0.253304
Cl 5.77762102 -2.28169128 34.34575447 0.189842 0.101891 0.067380
C  8.19874445 -0.87815409 36.27147529 -0.518526 -1.091890 1.545390
C  8.37662090 -0.18098165 35.15686605 1.326262 1.076289 -1.703363
C  9.77296299 0.28894018 34.68957450 -0.529885 0.452042 -0.589512
C  10.79055180 0.46323235 35.85609293 -0.211861 0.213979 0.066479
C  10.61972262 -0.63169438 36.86624189 -1.013201 0.182585 -0.321587
C  9.42986016 -1.24526474 37.05307266 -1.172670 1.060534 -0.451242
H  7.59707951 -0.03415156 34.39076547 0.014973 0.096576 0.509948
H  9.53784030 1.29396664 34.21733084 0.686591 -0.774550 0.289818
H  10.59459711 1.46661943 36.34234969 0.219280 -0.709845 -0.265816
H  11.47857181 -0.88658440 37.43696694 0.720422 -0.351271 0.662171
H  9.26540431 -1.91683825 37.86830818 0.221296 -0.651594 0.219176
C  4.53885115 -0.44587891 36.72932202 0.732480 0.746333 0.120776
C  3.77684277 0.08386998 35.67193130 -1.932676 0.209472 -0.401548
C  2.46954294 0.65507411 35.90731914 2.553077 -0.650988 1.006314
C  2.06927417 0.76113180 37.24198096 -1.381204 0.759397 -0.857116
C  2.78788696 0.27136431 38.32104361 0.745971 0.493141 -0.881419
C  4.05502253 -0.25863974 38.05494535 -1.159176 -0.168434 -1.175820
H  3.99945777 -0.09592673 34.60497122 0.536987 0.159719 0.619478
H  1.85468279 1.02748028 35.11115332 -0.236772 0.124081 -0.355881
H  1.11848792 1.27589446 37.35624185 -0.246856 -0.089452 0.506036
H  2.41582398 0.40067691 39.31946132 -0.131067 -0.100488 0.546980
H  4.52044264 -0.73119976 38.86271003 1.229905 -0.584160 1.256980
Si 4.70842635 4.85717833 43.66831706 -0.982195 -1.006918 0.927898
Si 5.16550121 2.00407447 45.14731766 0.515951 -0.874748 -0.370781
Si 7.56183335 4.76149011 42.72900186 1.453996 -0.146532 0.856301
Si 7.99221163 1.79784361 43.98478164 0.938691 -0.777693 1.313605
Si 3.60598658 3.30833899 41.05463911 1.768288 2.651455 -0.004190
Si 4.24087963 0.56331209 42.51934032 -0.943788 -0.876448 -2.566990