172
Lattice="12.836 0 0 6.418 11.116 0 0 0 55" Properties=species:S:1:pos:R:3:forces:R:3 energy=-124880.762503 charge=0 pbc="T T T"
Mg 0.00000000 1.85271700 16.00000000 0.000000 0.000000 0.000000
Mg 3.20900000 1.85271700 16.00000000 0.000000 0.000000 0.000000
Mg 6.41800000 1.85271700 16.00000000 0.000000 0.000000 0.000000
Mg 9.62700000 1.85271700 16.00000000 0.000000 0.000000 0.000000
Mg 1.60450000 4.63179300 16.00000000 0.000000 0.000000 0.000000
Mg 4.81350000 4.63179300 16.00000000 0.000000 0.000000 0.000000
Mg 8.02250000 4.63179300 16.00000000 0.000000 0.000000 0.000000
Mg 11.23150000 4.63179300 16.00000000 0.000000 0.000000 0.000000
Mg 3.20900000 7.41086800 16.00000000 0.000000 0.000000 0.000000
Mg 6.41800000 7.41086800 16.00000000 0.000000 0.000000 0.000000
Mg 9.62700000 7.41086800 16.00000000 0.000000 0.000000 0.000000
Mg 12.83600000 7.41086800 16.00000000 0.000000 0.000000 0.000000
Mg 4.81350000 10.18994400 16.00000000 0.000000 0.000000 0.000000
Mg 8.02250000 10.18994400 16.00000000 0.000000 0.000000 0.000000
Mg 11.23150000 10.18994400 16.00000000 0.000000 0.000000 0.000000
Mg 14.44050000 10.18994400 16.00000000 0.000000 0.000000 0.000000
Mg 0.00000000 0.00000000 18.60550000 0.000000 0.000000 0.000000
Mg 3.20900000 0.00000000 18.60550000 0.000000 0.000000 0.000000
Mg 6.41800000 0.00000000 18.60550000 0.000000 0.000000 0.000000
Mg 9.62700000 0.00000000 18.60550000 0.000000 0.000000 0.000000
Mg 1.60450000 2.77907600 18.60550000 0.000000 0.000000 0.000000
Mg 4.81350000 2.77907600 18.60550000 0.000000 0.000000 0.000000
Mg 8.02250000 2.77907600 18.60550000 0.000000 0.000000 0.000000
Mg 11.23150000 2.77907600 18.60550000 0.000000 0.000000 0.000000
Mg 3.20900000 5.55815100 18.60550000 0.000000 0.000000 0.000000
Mg 6.41800000 5.55815100 18.60550000 0.000000 0.000000 0.000000
Mg 9.62700000 5.55815100 18.60550000 0.000000 0.000000 0.000000
Mg 12.83600000 5.55815100 18.60550000 0.000000 0.000000 0.000000
Mg 4.81350000 8.33722700 18.60550000 0.000000 0.000000 0.000000
Mg 8.02250000 8.33722700 18.60550000 0.000000 0.000000 0.000000
Mg 11.23150000 8.33722700 18.60550000 0.000000 0.000000 0.000000
Mg 14.44050000 8.33722700 18.60550000 0.000000 0.000000 0.000000
Mg -1.63565673 1.32894731 21.13694199 0.000000 0.000000 0.000000
Mg 1.82832641 0.16298206 22.46052149 0.000000 0.000000 0.000000
Mg 4.43030181 0.26769989 21.44957794 0.000000 0.000000 0.000000
Mg 8.11142346 0.77312957 20.90194588 0.000000 0.000000 0.000000
Mg -0.24426921 3.62072177 21.86135973 0.000000 0.000000 0.000000
Mg 3.09404540 2.93896108 21.80524767 0.000000 0.000000 0.000000
Mg 6.52134854 1.59182397 23.47647249 0.000000 0.000000 0.000000
Mg 6.30795819 3.35071631 21.47202163 0.000000 0.000000 0.000000
Mg 1.77703248 5.98953289 21.04685082 0.000000 0.000000 0.000000
Mg 4.16917479 7.05405354 21.29736923 0.000000 0.000000 0.000000
Mg 9.33712534 4.26411954 21.51014390 0.000000 0.000000 0.000000
Mg 11.24510997 6.73471124 20.93762793 0.000000 0.000000 0.000000
Mg 3.18395033 9.75248723 21.07160998 0.000000 0.000000 0.000000
Mg 6.18755095 9.31031793 20.86780074 0.000000 0.000000 0.000000
Mg 8.96279501 8.70104459 21.36873081 0.000000 0.000000 0.000000
Mg 12.93369484 9.42482371 21.77137060 0.000000 0.000000 0.000000
Mg -1.46630623 -0.98378789 23.73516760 0.000000 0.000000 0.000000
Mg 1.42033034 -0.73710441 25.37993264 0.000000 0.000000 0.000000
Mg 5.25735294 -0.89978848 24.34029769 0.000000 0.000000 0.000000
Mg 8.52106789 -1.09816031 24.15545485 0.000000 0.000000 0.000000
Mg -0.20642827 1.49612919 24.42702497 0.000000 0.000000 0.000000
Mg 3.66413011 2.05440865 24.81243503 0.000000 0.000000 0.000000
Mg 7.91378062 1.97916293 26.26003472 0.000000 0.000000 0.000000
Mg 9.46412679 2.38576573 23.32825590 0.000000 0.000000 0.000000
Mg 1.67994812 4.55016414 23.82996795 0.000000 0.000000 0.000000
Mg 4.86282903 5.26696710 24.24964481 0.000000 0.000000 0.000000
Mg 7.87408533 4.82439194 24.38848238 0.000000 0.000000 0.000000
Mg 10.93729305 4.72711925 23.90973299 0.000000 0.000000 0.000000
Mg 2.93460366 7.43970087 23.82708440 0.000000 0.000000 0.000000
Mg 6.52377012 7.82075211 23.46216890 0.000000 0.000000 0.000000
Mg 9.67135359 7.79864442 24.25679102 0.000000 0.000000 0.000000
Mg 12.83940448 7.22537190 23.57780887 0.000000 0.000000 0.000000
Mg 7.97307509 8.35357238 28.99526060 -1.840899 -0.537114 -5.231591
Mg 27.60746174 1.33039222 25.18746925 -4.447504 -1.776276 6.938085
Cl 6.63541390 7.61565144 30.76480524 -0.037730 0.099910 -0.077288
Cl 3.59329296 11.49752676 25.18827276 -0.035320 1.011479 1.231622
Cl -4.10815894 6.64079432 27.60192241 0.439818 -0.760877 -0.621751
O  7.01158847 -1.26665216 25.88261183 -0.081288 -0.205375 0.606090
C  6.99624611 -2.45334225 26.76535457 0.096870 -1.698890 0.006508
C  5.84660410 -2.23807677 27.77148169 0.272267 -0.710561 -1.632099
C  5.84513590 -0.73499742 27.94017532 0.949037 0.953113 1.477098
C  6.86469357 -0.17777383 26.87064918 -0.280576 -1.885802 1.595377
H  7.97259001 -2.57226719 27.23728109 0.298161 0.555049 0.355989
H  6.94922854 -3.38438166 26.14241764 -0.473587 0.721361 0.057707
H  6.05650084 -2.79970209 28.69420319 -0.232549 0.086461 -0.100235
H  4.91833366 -2.57247868 27.27656296 -0.001908 -0.191016 0.382765
H  6.28821270 -0.56735456 28.95348065 -0.370974 0.511911 -0.506713
H  4.82585627 -0.27775069 27.92064093 0.691677 -0.120226 -0.299435
H  7.90658192 0.02358868 27.24704747 -0.651114 -0.184328 0.336267
H  6.38903286 0.58926968 26.33216942 -0.868935 1.396473 -0.891383
O  4.51415263 10.24464382 35.04814313 0.285306 0.111920 -0.282303
C  5.15547352 11.52130627 35.27832240 -2.339319 0.446867 0.787650
C  6.43825510 11.51399791 34.51273851 1.067531 -1.076370 -0.896677
C  6.85624266 9.95486907 34.64410711 -1.419268 1.572769 -0.195669
C  5.57796252 9.24940943 35.07204913 -1.473629 -0.943999 0.242068
H  5.29337569 11.63366813 36.38311730 0.431894 -0.007904 -0.428888
H  4.35881583 12.29015581 35.03675990 0.946617 -0.532620 -0.249652
H  7.16204410 12.15293221 34.99574369 0.585944 0.152136 0.595507
H  6.74597106 14.02946085 34.00980154 -0.457326 -0.697576 -1.624784
H  7.60830441 9.81146299 35.36463949 1.319646 -0.027796 1.059743
H  7.18293656 9.55784321 33.71278766 0.517100 -0.255479 -1.073395
H  5.62366194 8.84143560 36.15643985 0.058953 0.147844 -1.729801
H  5.23693963 8.49133298 34.27376636 0.541271 0.543056 1.490309
O  4.95692840 7.43124574 24.79078877 -1.788223 -0.376708 0.379607
C  7.23848071 9.66040546 27.47422505 0.741270 1.238539 0.913304
C  5.94425511 9.46650810 26.77282468 1.405736 -0.179437 0.172850
C  5.17712517 8.23511202 27.12899909 -2.122869 0.101246 -0.368540
C  4.23235953 7.99419012 25.91132252 0.496316 1.232113 1.752722
H  7.24905928 10.66189345 27.97317843 -0.214502 -0.438279 -0.168793
H  6.19708900 9.22796309 25.67098533 -0.686821 0.421391 0.169585
H  6.76754131 11.52574657 26.28054219 0.807017 0.625808 -1.093301
H  5.35670735 10.38924522 26.84303469 -0.386951 -0.438341 -0.413248
H  4.55788451 8.41429137 28.03455003 0.365376 -0.101039 -0.188113
H  5.71476151 7.32175673 27.24950479 1.008094 -0.450138 0.402709
H  3.86433256 9.07568597 25.74883474 0.118100 -1.430524 -0.342493
H  3.35665216 7.43107909 26.30382612 0.215080 -0.379236 -0.703447
O  5.85876982 13.43645021 26.62867512 -1.631475 2.155491 0.077295
C  6.56290386 13.52700319 27.89716819 0.481550 1.402331 0.296176
C  5.62258013 14.26299933 28.87658161 2.903028 1.575652 -0.132691
C  4.52335188 14.99374043 28.10942927 0.684025 -2.198510 -0.961718
C  4.91754502 14.73426858 26.63167004 0.454068 -1.303412 1.044937
H  7.42373583 14.20573109 27.73839199 0.139401 -0.389884 -0.127492
H  6.94857545 12.56101398 28.28236015 -0.508239 0.144770 -0.485253
H  6.29601105 14.86337691 29.58505570 -0.983604 -0.160177 -1.042109
H  5.19064158 13.60156389 29.50874815 -1.542458 -2.481036 2.114283
H  4.45901729 16.01206365 28.41169831 -0.480391 1.044739 -0.169276
H  3.62027200 14.41058214 28.28677592 -0.557433 0.392572 0.295219
H  5.43433178 15.64354169 26.33265287 0.626413 -0.070611 -0.828457
H  4.10924369 14.39247795 25.95439819 0.162385 0.430614 0.306480
O  10.62613632 15.77494155 27.32078959 0.642986 0.773582 -1.747012
C  10.60529861 15.23087397 28.61452153 0.122509 -2.273408 2.596516
C  12.06774489 15.20813901 29.21014963 -0.084432 -0.466107 -1.082733
C  12.75925451 14.95447101 27.84287070 2.326957 2.046900 1.049208
C  11.99672853 15.76868049 26.78034631 0.355900 -2.502022 0.167594
H  10.25429796 14.14205664 28.64501504 0.294950 0.912263 -0.574328
H  9.86724941 15.72505389 29.25986576 0.065689 0.600372 -0.247721
H  12.35702433 14.36314301 29.94055959 -0.784189 1.292036 -0.891021
H  12.42612382 16.19812890 29.54984815 -0.323583 -0.213276 0.316043
H  12.67607031 13.93934048 27.56701424 -0.357455 -1.844509 -0.160492
H  13.87843911 15.20475084 27.94108519 -1.368647 -0.066067 -0.404360
H  12.18080310 15.05407261 25.76494469 -0.944270 1.669862 1.867698
H  12.42615175 16.76762945 26.63772419 -0.241583 0.094561 -0.073078
O  9.65764587 8.74675250 30.17027796 -0.468866 -0.759094 -1.075953
C  10.36424436 7.55494999 30.77039458 0.334144 0.432247 0.033410
C  11.40947327 8.24694324 31.72126169 -2.507193 -0.431224 -0.043247
C  10.77276961 9.69512524 31.94405876 1.640230 -1.034725 1.256363
C  9.48713011 9.73364177 31.18382971 -0.538414 0.679139 0.721436
H  10.76180400 7.01642506 29.83735633 -0.579152 0.440273 1.486588
H  9.63677135 6.94851489 31.40498897 0.567909 0.520271 -1.111508
H  12.34846188 8.41726794 31.27662261 1.342548 -0.157511 -0.779584
H  11.56071293 7.62284080 32.61364911 -0.129179 0.291112 -0.004145
H  11.62605178 10.31528636 31.61326037 -0.867285 0.604958 -0.168670
H  10.59753765 9.90997618 32.99799708 0.103029 0.031227 0.303489
H  9.30513227 10.73165895 30.79812243 0.221739 0.311934 -1.095415
H  8.53734754 9.60791957 31.76462308 0.707663 -0.807689 0.078281
Al 9.22218155 -0.16017327 30.51857707 1.528771 0.136038 0.855944
Cl 10.03785235 -0.12049875 28.38963322 -0.582044 0.003186 0.556912
Cl 7.63495607 1.21812827 30.56708681 -1.390698 0.777391 -0.408777
C  10.58802014 0.84018064 31.63813479 1.528713 -1.073913 -0.004795
C  11.70251984 0.21322461 32.14490627 1.733042 0.219330 1.663953
C  12.89656148 0.91407981 33.03244511 -1.748451 0.045458 -1.117540
C  12.83163488 2.46952206 32.96854102 0.057738 0.371434 2.549160
C  11.48081410 2.98150955 32.63214352 -0.820953 1.974210 -0.681107
C  10.56597893 2.27061481 31.90510367 -0.562463 1.409041 0.439562
H  11.95233248 -0.85813793 32.26091089 -0.898854 0.173890 -0.932804
H  13.86451215 0.60479948 32.59836025 -0.205984 -0.210179 0.110301
H  13.49599531 2.97899813 32.26807017 0.580958 -0.320672 -0.364384
H  11.33236902 4.13054772 32.79051093 0.073791 -2.142907 -0.317458
H  9.69679830 2.84940340 31.54674029 0.179583 -0.321135 0.202526
C  8.67966211 -1.87698222 31.30732589 0.174060 -1.988744 -0.330562
C  8.05217573 -1.95184634 32.55500380 -0.846814 1.018184 1.175342
C  7.77808691 -3.11925239 33.30425978 -0.002951 -0.004427 -0.390002
C  8.29360552 -4.31819649 32.85861726 -0.094281 -0.455420 -0.730483
C  8.92122167 -4.32356876 31.57347450 -0.453075 -2.348812 1.039289
C  9.02836721 -3.19029781 30.80177839 0.966177 1.480142 -0.072994
H  7.71337725 -1.04150283 33.05810510 0.026423 0.210707 -0.279954
H  7.07300249 -3.17057132 34.14373480 0.543819 0.622352 0.087230
H  8.10738602 -5.21955159 33.47847260 0.349191 0.299460 -0.705212
H  9.23436698 -5.34270794 31.22120482 0.019470 1.092810 0.009554
H  9.63523931 -3.24516944 29.89237452 -0.339840 -0.117892 -0.141222
172
Lattice="12.836 0 0 6.418 11.116 0 0 0 55" Properties=species:S:1:pos:R:3:forces:R:3 energy=-124886.100586 charge=0 pbc="T T T"
Mg 0.00000000 1.85271700 16.00000000 0.000000 0.000000 0.000000
Mg 3.20900000 1.85271700 16.00000000 0.000000 0.000000 0.000000
Mg 6.41800000 1.85271700 16.00000000 0.000000 0.000000 0.000000
Mg 9.62700000 1.85271700 16.00000000 0.000000 0.000000 0.000000
Mg 1.60450000 4.63179300 16.00000000 0.000000 0.000000 0.000000
Mg 4.81350000 4.63179300 16.00000000 0.000000 0.000000 0.000000
Mg 8.02250000 4.63179300 16.00000000 0.000000 0.000000 0.000000
Mg 11.23150000 4.63179300 16.00000000 0.000000 0.000000 0.000000
Mg 3.20900000 7.41086800 16.00000000 0.000000 0.000000 0.000000
Mg 6.41800000 7.41086800 16.00000000 0.000000 0.000000 0.000000
Mg 9.62700000 7.41086800 16.00000000 0.000000 0.000000 0.000000
Mg 12.83600000 7.41086800 16.00000000 0.000000 0.000000 0.000000
Mg 4.81350000 10.18994400 16.00000000 0.000000 0.000000 0.000000
Mg 8.02250000 10.18994400 16.00000000 0.000000 0.000000 0.000000
Mg 11.23150000 10.18994400 16.00000000 0.000000 0.000000 0.000000
Mg 14.44050000 10.18994400 16.00000000 0.000000 0.000000 0.000000
Mg 0.00000000 0.00000000 18.60550000 0.000000 0.000000 0.000000
Mg 3.20900000 0.00000000 18.60550000 0.000000 0.000000 0.000000
Mg 6.41800000 0.00000000 18.60550000 0.000000 0.000000 0.000000
Mg 9.62700000 0.00000000 18.60550000 0.000000 0.000000 0.000000
Mg 1.60450000 2.77907600 18.60550000 0.000000 0.000000 0.000000
Mg 4.81350000 2.77907600 18.60550000 0.000000 0.000000 0.000000
Mg 8.02250000 2.77907600 18.60550000 0.000000 0.000000 0.000000
Mg 11.23150000 2.77907600 18.60550000 0.000000 0.000000 0.000000
Mg 3.20900000 5.55815100 18.60550000 0.000000 0.000000 0.000000
Mg 6.41800000 5.55815100 18.60550000 0.000000 0.000000 0.000000
Mg 9.62700000 5.55815100 18.60550000 0.000000 0.000000 0.000000
Mg 12.83600000 5.55815100 18.60550000 0.000000 0.000000 0.000000
Mg 4.81350000 8.33722700 18.60550000 0.000000 0.000000 0.000000
Mg 8.02250000 8.33722700 18.60550000 0.000000 0.000000 0.000000
Mg 11.23150000 8.33722700 18.60550000 0.000000 0.000000 0.000000
Mg 14.44050000 8.33722700 18.60550000 0.000000 0.000000 0.000000
Mg -1.63565673 1.32894731 21.13694199 0.000000 0.000000 0.000000
Mg 1.82832641 0.16298206 22.46052149 0.000000 0.000000 0.000000
Mg 4.43030181 0.26769989 21.44957794 0.000000 0.000000 0.000000
Mg 8.11142346 0.77312957 20.90194588 0.000000 0.000000 0.000000
Mg -0.24426921 3.62072177 21.86135973 0.000000 0.000000 0.000000
Mg 3.09404540 2.93896108 21.80524767 0.000000 0.000000 0.000000
Mg 6.52134854 1.59182397 23.47647249 0.000000 0.000000 0.000000
Mg 6.30795819 3.35071631 21.47202163 0.000000 0.000000 0.000000
Mg 1.77703248 5.98953289 21.04685082 0.000000 0.000000 0.000000
Mg 4.16917479 7.05405354 21.29736923 0.000000 0.000000 0.000000
Mg 9.33712534 4.26411954 21.51014390 0.000000 0.000000 0.000000
Mg 11.24510997 6.73471124 20.93762793 0.000000 0.000000 0.000000
Mg 3.18395033 9.75248723 21.07160998 0.000000 0.000000 0.000000
Mg 6.18755095 9.31031793 20.86780074 0.000000 0.000000 0.000000
Mg 8.96279501 8.70104459 21.36873081 0.000000 0.000000 0.000000
Mg 12.93369484 9.42482371 21.77137060 0.000000 0.000000 0.000000
Mg -1.46630623 -0.98378789 23.73516760 0.000000 0.000000 0.000000
Mg 1.42033034 -0.73710441 25.37993264 0.000000 0.000000 0.000000
Mg 5.25735294 -0.89978848 24.34029769 0.000000 0.000000 0.000000
Mg 8.52106789 -1.09816031 24.15545485 0.000000 0.000000 0.000000
Mg -0.20642827 1.49612919 24.42702497 0.000000 0.000000 0.000000
Mg 3.66413011 2.05440865 24.81243503 0.000000 0.000000 0.000000
Mg 7.91378062 1.97916293 26.26003472 0.000000 0.000000 0.000000
Mg 9.46412679 2.38576573 23.32825590 0.000000 0.000000 0.000000
Mg 1.67994812 4.55016414 23.82996795 0.000000 0.000000 0.000000
Mg 4.86282903 5.26696710 24.24964481 0.000000 0.000000 0.000000
Mg 7.87408533 4.82439194 24.38848238 0.000000 0.000000 0.000000
Mg 10.93729305 4.72711925 23.90973299 0.000000 0.000000 0.000000
Mg 2.93460366 7.43970087 23.82708440 0.000000 0.000000 0.000000
Mg 6.52377012 7.82075211 23.46216890 0.000000 0.000000 0.000000
Mg 9.67135359 7.79864442 24.25679102 0.000000 0.000000 0.000000
Mg 12.83940448 7.22537190 23.57780887 0.000000 0.000000 0.000000
Mg 8.02831656 8.47916011 28.70912876 2.933627 -0.184846 5.585365
Mg 27.26948683 2.09194823 25.63881602 -3.528535 2.824290 1.620469
Cl 6.43645335 7.77350760 30.51222501 0.496162 0.328448 -0.599175
Cl 3.59369494 12.02981543 25.33755428 0.239872 -0.398578 0.602145
Cl -3.72009995 6.51824019 27.86342016 0.033081 -0.230971 -0.492174
O  7.43316771 -1.63494906 26.32974338 0.031367 -0.826058 -0.959330
C  7.50630989 -2.96241771 27.05446923 -0.552273 0.406542 -0.765528
C  6.18098598 -3.05075415 27.80287153 -1.635813 -0.561247 -1.484147
C  5.69574807 -1.59452512 27.97744269 -0.921091 -0.389864 -1.546967
C  6.74127354 -0.80128468 27.23881033 0.827798 2.466891 2.016369
H  8.30673465 -2.89780010 27.80979650 0.253490 -0.109535 -0.520012
H  7.65838226 -3.68847901 26.20322823 0.051474 0.310504 1.056731
H  6.26005073 -3.55468270 28.73634791 0.571854 -0.354433 1.145051
H  5.37817170 -3.65798459 27.28981107 0.740149 0.551390 -0.066362
H  5.62412428 -1.33149517 28.99919429 0.177358 0.512197 1.292897
H  4.67872124 -1.39070168 27.56024212 0.431101 -0.528268 0.047753
H  7.49446137 -0.42858761 27.96743267 -0.091260 -0.247418 0.022634
H  6.35579738 0.18877119 26.84238595 0.018454 -1.172198 -0.637422
O  4.58216838 9.66592314 34.67361834 0.023258 1.222222 -0.099925
C  5.09484459 11.03058112 34.94032514 -1.483431 -0.508269 1.223388
C  6.43149105 11.11437826 34.25790646 1.473746 1.203019 0.825536
C  6.80107984 9.67505124 33.89015064 -0.757213 -0.943963 -0.882150
C  5.77514691 8.89779170 34.70260837 0.393482 -1.044428 2.630827
H  5.28221100 11.05901321 36.01747684 -0.021930 0.051316 0.443615
H  4.29526953 11.81205437 34.77824827 0.798579 -0.829084 -0.560931
H  7.21884959 11.52959158 34.94553830 -0.644959 -0.368547 -0.033972
H  6.88675957 13.77035738 34.21485257 0.434941 0.549083 1.793530
H  7.83655993 9.35139611 34.05181004 0.010875 0.239128 0.191937
H  6.55339332 9.49169266 32.81870763 0.392013 -0.028869 0.470134
H  6.14010551 8.81308501 35.82002674 -0.422182 0.184823 -1.606129
H  5.49849011 7.86192502 34.44726475 0.257451 0.223969 -0.536922
O  4.68772664 7.88617902 24.73084177 0.169095 -0.281726 -0.095509
C  7.55752865 9.86954319 27.40570700 -0.598851 0.169276 -1.072599
C  6.23097174 9.60433901 26.71621770 -1.025306 0.980514 1.445300
C  5.37443446 8.40500912 27.05614663 -0.684521 -0.215862 0.486976
C  4.24376146 8.20024267 26.06099898 0.162443 -0.671896 0.765774
H  7.52646931 10.86262358 27.85395389 0.061526 0.033079 0.108439
H  6.20538396 9.42594411 25.62008097 0.346515 0.168555 -0.912507
H  6.81163002 11.87850137 26.30115754 0.564701 0.036493 -1.651428
H  5.62025417 10.52705352 26.80920508 -0.348883 -0.453881 -0.080300
H  4.88528220 8.53965879 28.02897605 0.310807 0.052535 0.341755
H  5.98162316 7.49530993 27.11818744 0.116522 -0.216041 -0.070592
H  3.52521141 9.01194212 26.01287049 0.147349 1.212807 0.169170
H  3.54480515 7.45835184 26.48586263 0.396374 -0.742907 -0.232075
O  5.85971636 13.62864915 26.94973794 -0.504709 0.685688 0.230906
C  6.61817468 13.28267468 28.16804673 0.401139 0.646135 -0.959185
C  6.14830847 14.15863308 29.27346673 -1.138667 2.395496 -0.784921
C  4.69148154 14.64056495 28.80128448 0.043980 0.004321 0.701530
C  4.79228151 14.60612205 27.31097396 1.728693 0.808125 -1.160859
H  7.70410053 13.47350728 27.97468327 -0.304488 -0.313794 0.069258
H  6.41365994 12.24277499 28.32035520 0.037542 -0.825260 0.464023
H  6.80973003 15.04841060 29.41730990 -0.388319 -0.542450 -0.035837
H  6.08139507 13.59383800 30.15959186 -0.157034 -0.633659 1.572709
H  4.36150893 15.67264414 29.06656338 0.530686 -0.447032 0.320687
H  3.90445756 13.97501627 29.17765249 0.183647 -0.242879 0.038093
H  5.17478491 15.59696630 26.93797658 -0.418496 -0.494770 0.095332
H  3.92401642 14.34506653 26.69964504 -0.250023 -0.090136 0.222959
O  10.44630517 15.14752048 27.50015906 -1.095597 0.515272 -0.962995
C  10.69001072 15.83579225 28.72192905 2.296943 0.638900 1.583798
C  12.27836706 15.53220105 29.00423241 -0.044601 1.922702 -0.605319
C  12.71132919 15.03396502 27.60470688 1.170880 0.754107 0.427373
C  11.58809666 15.46151655 26.71041710 0.157517 2.347920 2.394691
H  10.11715703 15.42567497 29.53549326 -0.676423 -0.559045 0.203754
H  10.47954291 16.95081294 28.73815560 0.324090 -0.921728 -0.562822
H  12.53075840 14.81136147 29.75614700 -0.457267 -0.899240 0.590635
H  12.90413673 16.42883514 29.34907664 -1.071880 -0.571763 -0.715150
H  12.65397570 13.92172241 27.55912027 0.503508 0.190137 0.217057
H  13.69130933 15.50909406 27.28205730 -0.612943 -0.766461 0.423963
H  11.65963810 14.97740274 25.79956139 -0.368045 -1.748801 -1.942800
H  11.68988761 16.58986338 26.50282036 -0.277123 -0.806408 0.323275
O  9.67939609 9.17093364 29.95013543 -0.105961 -0.346885 -0.333238
C  10.47572909 8.18933220 30.67902264 0.234210 -0.763974 1.022398
C  11.33520512 9.03863998 31.62699795 0.389960 -0.241068 -0.160573
C  10.38392652 10.18504298 31.96479608 1.281937 0.591441 0.619431
C  9.56277285 10.44923417 30.73057851 -0.486864 -1.262132 -0.208315
H  11.08065180 7.56806251 30.01412542 -0.052368 0.333077 -0.599512
H  9.83378583 7.41250454 31.19860859 0.166144 1.086458 -0.164293
H  12.21977701 9.54051331 31.13224691 -0.506544 -1.094315 0.206071
H  11.68750489 8.50348490 32.55324217 -0.188570 0.353453 -0.918506
H  11.11028028 10.98746238 32.18069226 -0.827233 0.424906 0.389815
H  9.80519500 9.89669493 32.83387486 -0.461929 0.324812 0.280363
H  9.95938624 11.21800225 30.05971986 -0.124719 0.194748 0.124903
H  8.47832803 10.55247580 30.95314924 0.446568 0.314767 -0.198388
Al 9.40617275 0.10387527 30.81127076 -0.161541 -0.255063 -0.068033
Cl 10.26632836 -0.18588438 28.76986447 0.116953 -0.038985 -0.208691
Cl 7.62438790 1.29584583 29.99505207 -0.022911 0.022462 0.288312
C  10.74390193 1.16655245 31.83878651 -0.129869 0.482632 0.074577
C  11.90355796 0.47927297 32.07803159 -1.579517 -0.840195 -0.836763
C  12.91985624 0.91291457 33.06404969 0.345276 0.895809 -1.489297
C  12.89965476 2.47973642 33.25952589 -0.633791 -0.849176 -0.912030
C  11.56380733 3.19791954 33.03609088 1.633350 -1.855426 0.473660
C  10.58782391 2.54490060 32.39944079 -0.213312 -0.290875 -0.864341
H  11.93225960 -0.57711881 31.67769874 0.310617 1.021000 0.335079
H  13.90821401 0.66242586 32.68152801 0.497213 0.178084 -0.450859
H  13.66222151 2.91151222 32.60250203 0.039467 0.120408 -0.416348
H  11.48851753 4.15323211 33.48987641 -0.333545 1.062921 0.102748
H  9.71451531 3.13352203 32.15080189 -0.607578 -0.207320 0.061899
C  8.81069769 -1.76511319 31.44626148 1.507035 0.561632 -1.588393
C  8.40298282 -2.14429673 32.69569139 -1.647339 -1.714649 1.500718
C  7.92460365 -3.47736534 32.99979145 0.488882 0.246982 -0.686830
C  7.92996091 -4.45947211 31.98075998 -1.356422 -0.555785 0.625367
C  8.37451589 -4.07434531 30.71894073 1.031982 -0.832135 -1.310369
C  8.95340158 -2.81699021 30.50857988 -1.014839 0.522385 -1.240191
H  8.26539412 -1.40581932 33.45920525 0.120892 0.413698 0.608244
H  7.51105756 -3.75784298 33.97798820 0.288599 0.363366 -0.173374
H  7.41993618 -5.47616260 32.11999142 0.879441 1.424839 -0.028239
H  8.38484032 -4.78794286 29.84451783 -0.097210 0.535978 1.032446
H  9.28788765 -2.55861389 29.47169767 -0.021527 -0.290767 0.916154
172
Lattice="12.836 0 0 6.418 11.116 0 0 0 55" Properties=species:S:1:pos:R:3:forces:R:3 energy=-124883.984007 charge=0 pbc="T T T"
Mg 0.00000000 1.85271700 16.00000000 0.000000 0.000000 0.000000
Mg 3.20900000 1.85271700 16.00000000 0.000000 0.000000 0.000000
Mg 6.41800000 1.85271700 16.00000000 0.000000 0.000000 0.000000
Mg 9.62700000 1.85271700 16.00000000 0.000000 0.000000 0.000000
Mg 1.60450000 4.63179300 16.00000000 0.000000 0.000000 0.000000
Mg 4.81350000 4.63179300 16.00000000 0.000000 0.000000 0.000000
Mg 8.02250000 4.63179300 16.00000000 0.000000 0.000000 0.000000
Mg 11.23150000 4.63179300 16.00000000 0.000000 0.000000 0.000000
Mg 3.20900000 7.41086800 16.00000000 0.000000 0.000000 0.000000
Mg 6.41800000 7.41086800 16.00000000 0.000000 0.000000 0.000000
Mg 9.62700000 7.41086800 16.00000000 0.000000 0.000000 0.000000
Mg 12.83600000 7.41086800 16.00000000 0.000000 0.000000 0.000000
Mg 4.81350000 10.18994400 16.00000000 0.000000 0.000000 0.000000
Mg 8.02250000 10.18994400 16.00000000 0.000000 0.000000 0.000000
Mg 11.23150000 10.18994400 16.00000000 0.000000 0.000000 0.000000
Mg 14.44050000 10.18994400 16.00000000 0.000000 0.000000 0.000000
Mg 0.00000000 0.00000000 18.60550000 0.000000 0.000000 0.000000
Mg 3.20900000 0.00000000 18.60550000 0.000000 0.000000 0.000000
Mg 6.41800000 0.00000000 18.60550000 0.000000 0.000000 0.000000
Mg 9.62700000 0.00000000 18.60550000 0.000000 0.000000 0.000000
Mg 1.60450000 2.77907600 18.60550000 0.000000 0.000000 0.000000
Mg 4.81350000 2.77907600 18.60550000 0.000000 0.000000 0.000000
Mg 8.02250000 2.77907600 18.60550000 0.000000 0.000000 0.000000
Mg 11.23150000 2.77907600 18.60550000 0.000000 0.000000 0.000000
Mg 3.20900000 5.55815100 18.60550000 0.000000 0.000000 0.000000
Mg 6.41800000 5.55815100 18.60550000 0.000000 0.000000 0.000000
Mg 9.62700000 5.55815100 18.60550000 0.000000 0.000000 0.000000
Mg 12.83600000 5.55815100 18.60550000 0.000000 0.000000 0.000000
Mg 4.81350000 8.33722700 18.60550000 0.000000 0.000000 0.000000
Mg 8.02250000 8.33722700 18.60550000 0.000000 0.000000 0.000000
Mg 11.23150000 8.33722700 18.60550000 0.000000 0.000000 0.000000
Mg 14.44050000 8.33722700 18.60550000 0.000000 0.000000 0.000000
Mg -1.63565673 1.32894731 21.13694199 0.000000 0.000000 0.000000
Mg 1.82832641 0.16298206 22.46052149 0.000000 0.000000 0.000000
Mg 4.43030181 0.26769989 21.44957794 0.000000 0.000000 0.000000
Mg 8.11142346 0.77312957 20.90194588 0.000000 0.000000 0.000000
Mg -0.24426921 3.62072177 21.86135973 0.000000 0.000000 0.000000
Mg 3.09404540 2.93896108 21.80524767 0.000000 0.000000 0.000000
Mg 6.52134854 1.59182397 23.47647249 0.000000 0.000000 0.000000
Mg 6.30795819 3.35071631 21.47202163 0.000000 0.000000 0.000000
Mg 1.77703248 5.98953289 21.04685082 0.000000 0.000000 0.000000
Mg 4.16917479 7.05405354 21.29736923 0.000000 0.000000 0.000000
Mg 9.33712534 4.26411954 21.51014390 0.000000 0.000000 0.000000
Mg 11.24510997 6.73471124 20.93762793 0.000000 0.000000 0.000000
Mg 3.18395033 9.75248723 21.07160998 0.000000 0.000000 0.000000
Mg 6.18755095 9.31031793 20.86780074 0.000000 0.000000 0.000000
Mg 8.96279501 8.70104459 21.36873081 0.000000 0.000000 0.000000
Mg 12.93369484 9.42482371 21.77137060 0.000000 0.000000 0.000000
Mg -1.46630623 -0.98378789 23.73516760 0.000000 0.000000 0.000000
Mg 1.42033034 -0.73710441 25.37993264 0.000000 0.000000 0.000000
Mg 5.25735294 -0.89978848 24.34029769 0.000000 0.000000 0.000000
Mg 8.52106789 -1.09816031 24.15545485 0.000000 0.000000 0.000000
Mg -0.20642827 1.49612919 24.42702497 0.000000 0.000000 0.000000
Mg 3.66413011 2.05440865 24.81243503 0.000000 0.000000 0.000000
Mg 7.91378062 1.97916293 26.26003472 0.000000 0.000000 0.000000
Mg 9.46412679 2.38576573 23.32825590 0.000000 0.000000 0.000000
Mg 1.67994812 4.55016414 23.82996795 0.000000 0.000000 0.000000
Mg 4.86282903 5.26696710 24.24964481 0.000000 0.000000 0.000000
Mg 7.87408533 4.82439194 24.38848238 0.000000 0.000000 0.000000
Mg 10.93729305 4.72711925 23.90973299 0.000000 0.000000 0.000000
Mg 2.93460366 7.43970087 23.82708440 0.000000 0.000000 0.000000
Mg 6.52377012 7.82075211 23.46216890 0.000000 0.000000 0.000000
Mg 9.67135359 7.79864442 24.25679102 0.000000 0.000000 0.000000
Mg 12.83940448 7.22537190 23.57780887 0.000000 0.000000 0.000000
Mg 8.38628315 8.33734734 28.97974735 0.914432 0.989306 -2.356168
Mg 27.26008841 2.17944719 25.27651316 -2.428408 -0.619600 8.364593
Cl 6.47815266 8.30133460 30.24501480 0.000327 -0.132736 0.528651
Cl 3.40495661 11.48491071 25.56276490 0.359477 0.049441 -0.181714
Cl -4.13632437 6.57935096 27.58484038 0.652732 -1.064915 -0.481343
O  7.29880037 -2.61448520 25.81978182 -0.973563 0.044714 1.205544
C  6.56177306 -3.82910274 26.34801914 1.908447 -0.894319 -1.224710
C  5.39861904 -3.35887044 27.04012347 -1.980623 1.193453 0.339708
C  5.69207729 -1.95582735 27.62121300 3.406069 -2.388986 0.424920
C  7.00766602 -1.54066412 26.88171541 0.985896 0.418030 0.757040
H  7.24923833 -4.40009538 26.95388476 0.608238 -0.215733 0.408841
H  6.22537548 -4.59136174 25.54687843 0.659687 1.019389 0.501564
H  5.04857010 -4.12429856 27.74800297 -0.293640 0.367472 0.011009
H  4.63050798 -3.19520035 26.24792810 -0.181487 -0.291208 0.578214
H  5.92157541 -2.07158885 28.69300904 -0.226758 0.437535 -0.082679
H  4.93501334 -1.29610768 27.42154767 -2.289793 1.835189 -0.273496
H  7.92754073 -1.45743305 27.59422445 -1.382077 -0.216265 -1.205051
H  6.91393816 -0.52068417 26.35662437 0.092004 -1.276214 0.376701
O  4.88201267 9.22508869 34.86638862 0.058197 -0.200960 -0.037543
C  5.59783850 10.39350082 35.25441649 -0.991913 0.166350 0.688911
C  6.70645904 10.62303516 34.25060230 -0.196136 -0.492838 -0.651319
C  7.09333413 9.15348240 33.86151646 1.876925 0.624079 0.293505
C  5.80855638 8.40899524 34.12793505 0.184984 -0.592191 0.655899
H  5.83254169 10.20591405 36.30338662 1.048230 0.350556 0.285346
H  4.87359366 11.20724892 35.28212749 -0.249265 0.332788 -0.162031
H  7.54454617 11.12131269 34.67746026 0.992133 0.230756 1.006053
H  5.85246333 12.88915969 34.78598032 -0.553271 0.334045 0.575306
H  7.99304849 8.83336029 34.52233080 -1.546498 0.283713 -0.689364
H  7.48314782 9.02000187 32.81583207 -0.644674 0.284114 0.550708
H  6.00557423 7.44703602 34.58548244 -0.030722 -0.400564 0.777147
H  5.25266977 8.19095824 33.27811409 -0.706900 -0.552405 -2.352755
O  4.89742689 8.02459104 24.69861328 -1.078239 -0.305010 0.766160
C  7.59497933 9.84774550 27.40711372 -0.066764 -0.602749 0.220832
C  6.28069251 9.42670777 26.69395084 0.544626 0.487672 1.900800
C  5.75095605 8.00232390 27.03442521 -0.615768 2.293063 0.132677
C  4.55686676 7.95063625 26.20803669 -1.734434 0.901893 -2.423001
H  7.51987465 10.80773350 27.94963407 -0.434237 -0.299286 -0.180514
H  6.25492045 9.29923265 25.55632978 0.470377 0.263023 0.389721
H  6.93747651 11.76876770 26.23900619 0.457085 0.160885 -1.111065
H  5.53149028 10.24014081 26.81434864 -0.188147 -0.691852 0.274080
H  5.45658996 7.88870064 28.06797637 -0.019562 0.315905 0.766369
H  6.50245521 7.28642679 26.86269077 0.910530 -1.175002 -0.647145
H  3.89102416 8.85929286 26.30840711 0.618188 -0.715853 0.530711
H  3.88749763 7.11394480 26.35929300 -0.201359 -0.744414 0.052587