172
Lattice="12.836 0 0 6.418 11.116 0 0 0 55" Properties=species:S:1:pos:R:3:forces:R:3 energy=-124874.923749 charge=0 pbc="T T T"
Mg 0.00000000 1.85271700 16.00000000 0.000000 0.000000 0.000000
Mg 3.20900000 1.85271700 16.00000000 0.000000 0.000000 0.000000
Mg 6.41800000 1.85271700 16.00000000 0.000000 0.000000 0.000000
Mg 9.62700000 1.85271700 16.00000000 0.000000 0.000000 0.000000
Mg 1.60450000 4.63179300 16.00000000 0.000000 0.000000 0.000000
Mg 4.81350000 4.63179300 16.00000000 0.000000 0.000000 0.000000
Mg 8.02250000 4.63179300 16.00000000 0.000000 0.000000 0.000000
Mg 11.23150000 4.63179300 16.00000000 0.000000 0.000000 0.000000
Mg 3.20900000 7.41086800 16.00000000 0.000000 0.000000 0.000000
Mg 6.41800000 7.41086800 16.00000000 0.000000 0.000000 0.000000
Mg 9.62700000 7.41086800 16.00000000 0.000000 0.000000 0.000000
Mg 12.83600000 7.41086800 16.00000000 0.000000 0.000000 0.000000
Mg 4.81350000 10.18994400 16.00000000 0.000000 0.000000 0.000000
Mg 8.02250000 10.18994400 16.00000000 0.000000 0.000000 0.000000
Mg 11.23150000 10.18994400 16.00000000 0.000000 0.000000 0.000000
Mg 14.44050000 10.18994400 16.00000000 0.000000 0.000000 0.000000
Mg 0.00000000 0.00000000 18.60550000 0.000000 0.000000 0.000000
Mg 3.20900000 0.00000000 18.60550000 0.000000 0.000000 0.000000
Mg 6.41800000 0.00000000 18.60550000 0.000000 0.000000 0.000000
Mg 9.62700000 0.00000000 18.60550000 0.000000 0.000000 0.000000
Mg 1.60450000 2.77907600 18.60550000 0.000000 0.000000 0.000000
Mg 4.81350000 2.77907600 18.60550000 0.000000 0.000000 0.000000
Mg 8.02250000 2.77907600 18.60550000 0.000000 0.000000 0.000000
Mg 11.23150000 2.77907600 18.60550000 0.000000 0.000000 0.000000
Mg 3.20900000 5.55815100 18.60550000 0.000000 0.000000 0.000000
Mg 6.41800000 5.55815100 18.60550000 0.000000 0.000000 0.000000
Mg 9.62700000 5.55815100 18.60550000 0.000000 0.000000 0.000000
Mg 12.83600000 5.55815100 18.60550000 0.000000 0.000000 0.000000
Mg 4.81350000 8.33722700 18.60550000 0.000000 0.000000 0.000000
Mg 8.02250000 8.33722700 18.60550000 0.000000 0.000000 0.000000
Mg 11.23150000 8.33722700 18.60550000 0.000000 0.000000 0.000000
Mg 14.44050000 8.33722700 18.60550000 0.000000 0.000000 0.000000
Mg -1.63565673 1.32894731 21.13694199 0.000000 0.000000 0.000000
Mg 1.82832641 0.16298206 22.46052149 0.000000 0.000000 0.000000
Mg 4.43030181 0.26769989 21.44957794 0.000000 0.000000 0.000000
Mg 8.11142346 0.77312957 20.90194588 0.000000 0.000000 0.000000
Mg -0.24426921 3.62072177 21.86135973 0.000000 0.000000 0.000000
Mg 3.09404540 2.93896108 21.80524767 0.000000 0.000000 0.000000
Mg 6.52134854 1.59182397 23.47647249 0.000000 0.000000 0.000000
Mg 6.30795819 3.35071631 21.47202163 0.000000 0.000000 0.000000
Mg 1.77703248 5.98953289 21.04685082 0.000000 0.000000 0.000000
Mg 4.16917479 7.05405354 21.29736923 0.000000 0.000000 0.000000
Mg 9.33712534 4.26411954 21.51014390 0.000000 0.000000 0.000000
Mg 11.24510997 6.73471124 20.93762793 0.000000 0.000000 0.000000
Mg 3.18395033 9.75248723 21.07160998 0.000000 0.000000 0.000000
Mg 6.18755095 9.31031793 20.86780074 0.000000 0.000000 0.000000
Mg 8.96279501 8.70104459 21.36873081 0.000000 0.000000 0.000000
Mg 12.93369484 9.42482371 21.77137060 0.000000 0.000000 0.000000
Mg -1.46630623 -0.98378789 23.73516760 0.000000 0.000000 0.000000
Mg 1.42033034 -0.73710441 25.37993264 0.000000 0.000000 0.000000
Mg 5.25735294 -0.89978848 24.34029769 0.000000 0.000000 0.000000
Mg 8.52106789 -1.09816031 24.15545485 0.000000 0.000000 0.000000
Mg -0.20642827 1.49612919 24.42702497 0.000000 0.000000 0.000000
Mg 3.66413011 2.05440865 24.81243503 0.000000 0.000000 0.000000
Mg 7.91378062 1.97916293 26.26003472 0.000000 0.000000 0.000000
Mg 9.46412679 2.38576573 23.32825590 0.000000 0.000000 0.000000
Mg 1.67994812 4.55016414 23.82996795 0.000000 0.000000 0.000000
Mg 4.86282903 5.26696710 24.24964481 0.000000 0.000000 0.000000
Mg 7.87408533 4.82439194 24.38848238 0.000000 0.000000 0.000000
Mg 10.93729305 4.72711925 23.90973299 0.000000 0.000000 0.000000
Mg 2.93460366 7.43970087 23.82708440 0.000000 0.000000 0.000000
Mg 6.52377012 7.82075211 23.46216890 0.000000 0.000000 0.000000
Mg 9.67135359 7.79864442 24.25679102 0.000000 0.000000 0.000000
Mg 12.83940448 7.22537190 23.57780887 0.000000 0.000000 0.000000
Mg 8.16618781 8.38817757 31.35949201 -2.220920 -3.197451 -4.479478
Mg 17.69424707 4.24165340 22.88181402 4.220137 -2.172806 -11.461300
Cl 8.10943861 6.49338053 33.20036100 0.154588 1.045972 -0.983786
Cl 2.69036614 14.60187054 27.26627942 0.630959 0.979588 0.421036
Cl -5.96304337 0.09963803 26.70834002 -0.734156 -1.445736 0.285062
O  10.17684948 -0.62521520 30.32338123 0.299754 -1.083302 1.454635
C  9.49449027 -0.83832224 31.64491242 -1.908594 0.814195 -1.808790
C  8.87805329 0.58399018 31.92269974 0.727497 -1.460905 1.190490
C  8.75113322 1.20767420 30.57466526 -2.528058 -0.352510 -1.162025
C  9.17972609 0.08896078 29.61316496 -0.387320 0.528550 1.050991
H  10.04898499 -1.28163292 32.45311633 1.060839 -0.091496 0.132362
H  8.62762036 -1.55514190 31.47200476 0.792968 0.520855 0.059366
H  9.54219185 1.17749746 32.51252886 0.893965 0.378981 0.679935
H  8.01967040 0.46070971 32.57618492 -0.757299 0.110377 -0.185232
H  9.29466879 2.10744756 30.47166945 1.118873 1.024257 -0.170895
H  7.70718099 1.54485025 30.35783116 0.493576 -0.348949 0.105427
H  9.52671669 0.45869241 28.67037713 0.636662 0.015508 -0.784600
H  8.32902043 -0.57195798 29.46343361 -0.376492 -0.297804 -0.429656
O  3.66641195 9.44478540 38.27282267 1.005161 -0.648804 0.233296
C  4.51505508 10.55498958 38.59854758 1.276070 -1.621542 -0.776340
C  5.41110917 10.76953324 37.36265095 0.128668 -0.239692 -0.322601
C  5.66538098 9.30814361 36.87099329 -2.587711 0.557093 0.136468
C  4.47858902 8.47810081 37.49437480 0.140262 0.148956 0.914665
H  5.15195692 10.39374127 39.50181915 -0.424942 -0.100914 -0.289536
H  3.87888069 11.36571865 38.70812994 -1.384820 1.750462 0.809758
H  6.33267671 11.23069797 37.69714230 0.650413 0.183309 0.040439
H  5.38102840 13.05090751 37.62501783 0.380558 1.196999 0.912918
H  6.59230872 8.94092395 37.21406362 1.367995 -0.526290 0.223555
H  5.54905432 9.25737702 35.79903702 0.393080 -0.131978 -0.586611
H  4.88330282 7.66521934 38.15055541 -0.282343 0.585897 -0.088923
H  3.74686706 8.00506196 36.82811184 0.239901 0.166217 -0.418543
O  4.23528578 8.77465649 27.59151546 0.325298 0.070197 0.157389
C  7.31799654 7.24757161 29.77458183 2.125829 1.621719 3.027725
C  6.98217342 6.55703372 28.57745041 1.214623 -1.176947 -0.346851
C  5.53603445 6.95529007 28.34528841 -0.778418 -0.404215 0.334274
C  5.39725593 8.48478052 28.25954053 -2.173983 -0.974779 -1.047389
H  7.56305110 8.34688151 29.70311347 -0.482636 -0.705977 -1.158970
H  7.62759036 6.73826593 30.74494402 -0.815955 -0.536439 -1.231667
H  7.15091794 5.47570368 28.80992291 -0.436056 0.311842 -0.457917
H  7.69771324 6.83244859 27.77610135 -0.522831 -0.037609 -0.302397
H  5.01567324 6.63038932 29.26603777 -0.293405 -0.041956 -0.425909
H  5.09137275 6.44498723 27.49159843 -0.220681 -0.060112 -0.484445
H  6.26685223 8.87580349 27.75677385 1.231323 0.758562 -0.478676
H  5.33766537 8.85970557 29.29468870 0.262150 0.392024 0.468910
O  7.39337256 10.42591138 31.49416371 -0.871408 -0.949163 -0.635373
C  7.99268784 11.70277341 32.00383980 -0.470491 -0.364820 -1.613773
C  8.36672568 11.36751475 33.41526687 0.332475 0.716366 0.635518
C  7.64558903 10.06724851 33.74235831 1.140340 -0.143444 1.087121
C  6.82717816 9.64949403 32.59311865 0.323151 3.239045 -0.110873
H  7.23679614 12.54321393 31.94023614 0.608635 -0.889190 -0.252222
H  8.81018623 11.78137635 31.22599044 -0.583898 0.600153 1.091093
H  7.99738722 12.08825011 34.12618794 0.040239 0.901979 0.244536
H  9.46466371 11.31584396 33.53538024 -0.273397 -0.135880 0.272910
H  7.01583170 10.06089565 34.61477761 0.151306 0.179928 0.904075
H  8.44271713 9.33321099 33.83432712 -0.005208 -0.597781 0.800177
H  5.79312478 9.80944064 32.64013153 -1.826102 0.224885 0.176692
H  7.03520678 8.62111289 32.60710280 -0.986031 -2.228270 -0.113490
O  9.60702732 9.77126810 30.32813469 0.324752 0.922162 -0.479862
C  10.73246846 10.43700155 29.53018623 0.165199 -2.945622 1.175442
C  11.79203876 9.36123927 29.87832922 0.983074 0.255656 -1.915728
C  11.72136357 9.14351861 31.37988023 -1.195175 -2.133079 -0.872587
C  10.16801614 9.19972822 31.53551900 1.856223 1.617489 0.771804
H  11.09536382 11.38030873 29.92594888 -0.653966 0.578291 0.262307
H  10.34118754 10.46722931 28.51146826 0.209636 0.158573 -0.087559
H  12.80296107 9.70092984 29.68956294 0.570415 0.353966 -0.523859
H  11.66689562 8.45225771 29.22391596 -0.177825 0.595828 0.836086
H  12.29273954 9.87824276 31.95497212 -0.227088 -0.100340 0.282673
H  12.03596232 8.07394508 31.55927266 0.158215 1.124710 0.392705
H  9.93976945 9.87753053 32.39629071 -0.089838 -0.810377 -0.264198
H  9.78374638 8.15686685 31.64354730 1.785841 -0.069739 0.581403
O  6.51956739 3.42445431 30.15967698 -0.526432 -0.872116 -1.368993
C  5.65651406 3.92972946 31.18621469 -1.047183 -0.679192 -1.662230
C  4.19372002 3.58812654 30.80993949 1.590393 0.175559 -1.242158
C  4.28309666 3.26944435 29.29016232 -1.412012 -0.527726 0.891396
C  5.69199219 2.85093882 29.07073945 1.708584 0.554903 -0.512626
H  5.79040184 4.97728021 31.23202938 0.350803 1.417088 0.456960
H  5.92598617 3.41173008 32.04844617 0.595606 -0.495972 2.104949
H  3.62307464 4.48047534 30.94579810 -1.080486 0.326860 0.515747
H  3.91943803 2.73463744 31.36568310 -0.945707 -0.910466 0.912596
H  3.96423182 4.13724140 28.81031737 0.321261 2.291948 -1.198987
H  3.47143769 2.64086129 28.86718008 0.552958 -0.802833 0.628407
H  6.18292145 3.31724948 28.17452597 -0.551893 -0.604765 0.123718
H  5.76034041 1.74563306 29.01103529 0.444866 0.279508 0.163895
Al 7.22727607 -0.93535496 35.95448863 -0.693221 -0.765805 -0.577896
Cl 8.02099000 -2.81849452 34.94192743 -0.183399 0.620417 0.334791
Cl 5.86648755 -0.06597641 34.44156784 -0.231641 0.171851 -0.475329
C  8.66527181 0.29385164 36.25975023 0.679023 0.216270 -0.179586
C  9.90149044 -0.03743487 35.80611026 1.400567 0.861530 -0.387855
C  11.20036286 0.63370473 36.29109970 -0.780261 -0.792778 -1.361200
C  10.98683236 2.01520758 36.91593018 -0.574714 -1.415248 1.339885
C  9.62507986 2.16825205 37.57355309 0.583673 0.311187 -0.941065
C  8.56615581 1.43602227 37.14086211 -1.573994 0.803782 0.410360
H  10.03899376 -0.78667250 35.02653882 -0.167460 -0.307024 0.178364
H  11.89192174 0.78063637 35.40748646 -0.308720 -0.554545 0.751808
H  11.14924588 2.88747128 36.30424175 0.202038 0.409376 -0.699881
H  9.51001430 3.02928233 38.21867394 -0.228800 0.184293 0.184868
H  7.51747305 1.79268194 37.38489956 1.183612 -0.599366 0.193967
C  6.11344800 -1.10680441 37.55976840 2.571296 -0.790724 0.914622
C  4.76323220 -1.20163153 37.46447331 -2.156403 0.498666 -1.657145
C  3.88506333 -1.36183943 38.54389604 -0.380527 -0.474139 0.587786
C  4.47805807 -1.52188180 39.79721018 0.468620 -1.107487 -0.210031
C  5.88062645 -1.68360416 39.87424879 -0.424636 -0.712124 2.743562
C  6.70957245 -1.43195599 38.82707514 0.734438 0.569035 -1.425942
H  4.41415628 -1.10275502 36.41931970 -0.533058 -0.063674 0.620085
H  2.79273435 -1.56113337 38.46635997 0.709758 0.568536 -0.279392
H  3.91061022 -1.81673590 40.67203077 -0.313067 0.234687 0.105054
H  6.28702466 -2.13810819 40.83029995 -0.350993 0.903076 -0.957233
H  7.80940459 -1.50068066 38.95052756 -0.624028 -0.056327 -0.191768
172
Lattice="12.836 0 0 6.418 11.116 0 0 0 55" Properties=species:S:1:pos:R:3:forces:R:3 energy=-124874.399791 charge=0 pbc="T T T"
Mg 0.00000000 1.85271700 16.00000000 0.000000 0.000000 0.000000
Mg 3.20900000 1.85271700 16.00000000 0.000000 0.000000 0.000000
Mg 6.41800000 1.85271700 16.00000000 0.000000 0.000000 0.000000
Mg 9.62700000 1.85271700 16.00000000 0.000000 0.000000 0.000000
Mg 1.60450000 4.63179300 16.00000000 0.000000 0.000000 0.000000
Mg 4.81350000 4.63179300 16.00000000 0.000000 0.000000 0.000000
Mg 8.02250000 4.63179300 16.00000000 0.000000 0.000000 0.000000
Mg 11.23150000 4.63179300 16.00000000 0.000000 0.000000 0.000000
Mg 3.20900000 7.41086800 16.00000000 0.000000 0.000000 0.000000
Mg 6.41800000 7.41086800 16.00000000 0.000000 0.000000 0.000000
Mg 9.62700000 7.41086800 16.00000000 0.000000 0.000000 0.000000
Mg 12.83600000 7.41086800 16.00000000 0.000000 0.000000 0.000000
Mg 4.81350000 10.18994400 16.00000000 0.000000 0.000000 0.000000
Mg 8.02250000 10.18994400 16.00000000 0.000000 0.000000 0.000000
Mg 11.23150000 10.18994400 16.00000000 0.000000 0.000000 0.000000
Mg 14.44050000 10.18994400 16.00000000 0.000000 0.000000 0.000000
Mg 0.00000000 0.00000000 18.60550000 0.000000 0.000000 0.000000
Mg 3.20900000 0.00000000 18.60550000 0.000000 0.000000 0.000000
Mg 6.41800000 0.00000000 18.60550000 0.000000 0.000000 0.000000
Mg 9.62700000 0.00000000 18.60550000 0.000000 0.000000 0.000000
Mg 1.60450000 2.77907600 18.60550000 0.000000 0.000000 0.000000
Mg 4.81350000 2.77907600 18.60550000 0.000000 0.000000 0.000000
Mg 8.02250000 2.77907600 18.60550000 0.000000 0.000000 0.000000
Mg 11.23150000 2.77907600 18.60550000 0.000000 0.000000 0.000000
Mg 3.20900000 5.55815100 18.60550000 0.000000 0.000000 0.000000
Mg 6.41800000 5.55815100 18.60550000 0.000000 0.000000 0.000000
Mg 9.62700000 5.55815100 18.60550000 0.000000 0.000000 0.000000
Mg 12.83600000 5.55815100 18.60550000 0.000000 0.000000 0.000000
Mg 4.81350000 8.33722700 18.60550000 0.000000 0.000000 0.000000
Mg 8.02250000 8.33722700 18.60550000 0.000000 0.000000 0.000000
Mg 11.23150000 8.33722700 18.60550000 0.000000 0.000000 0.000000
Mg 14.44050000 8.33722700 18.60550000 0.000000 0.000000 0.000000
Mg -1.63565673 1.32894731 21.13694199 0.000000 0.000000 0.000000
Mg 1.82832641 0.16298206 22.46052149 0.000000 0.000000 0.000000
Mg 4.43030181 0.26769989 21.44957794 0.000000 0.000000 0.000000
Mg 8.11142346 0.77312957 20.90194588 0.000000 0.000000 0.000000
Mg -0.24426921 3.62072177 21.86135973 0.000000 0.000000 0.000000
Mg 3.09404540 2.93896108 21.80524767 0.000000 0.000000 0.000000
Mg 6.52134854 1.59182397 23.47647249 0.000000 0.000000 0.000000
Mg 6.30795819 3.35071631 21.47202163 0.000000 0.000000 0.000000
Mg 1.77703248 5.98953289 21.04685082 0.000000 0.000000 0.000000
Mg 4.16917479 7.05405354 21.29736923 0.000000 0.000000 0.000000
Mg 9.33712534 4.26411954 21.51014390 0.000000 0.000000 0.000000
Mg 11.24510997 6.73471124 20.93762793 0.000000 0.000000 0.000000
Mg 3.18395033 9.75248723 21.07160998 0.000000 0.000000 0.000000
Mg 6.18755095 9.31031793 20.86780074 0.000000 0.000000 0.000000
Mg 8.96279501 8.70104459 21.36873081 0.000000 0.000000 0.000000
Mg 12.93369484 9.42482371 21.77137060 0.000000 0.000000 0.000000
Mg -1.46630623 -0.98378789 23.73516760 0.000000 0.000000 0.000000
Mg 1.42033034 -0.73710441 25.37993264 0.000000 0.000000 0.000000
Mg 5.25735294 -0.89978848 24.34029769 0.000000 0.000000 0.000000
Mg 8.52106789 -1.09816031 24.15545485 0.000000 0.000000 0.000000
Mg -0.20642827 1.49612919 24.42702497 0.000000 0.000000 0.000000
Mg 3.66413011 2.05440865 24.81243503 0.000000 0.000000 0.000000
Mg 7.91378062 1.97916293 26.26003472 0.000000 0.000000 0.000000
Mg 9.46412679 2.38576573 23.32825590 0.000000 0.000000 0.000000
Mg 1.67994812 4.55016414 23.82996795 0.000000 0.000000 0.000000
Mg 4.86282903 5.26696710 24.24964481 0.000000 0.000000 0.000000
Mg 7.87408533 4.82439194 24.38848238 0.000000 0.000000 0.000000
Mg 10.93729305 4.72711925 23.90973299 0.000000 0.000000 0.000000
Mg 2.93460366 7.43970087 23.82708440 0.000000 0.000000 0.000000
Mg 6.52377012 7.82075211 23.46216890 0.000000 0.000000 0.000000
Mg 9.67135359 7.79864442 24.25679102 0.000000 0.000000 0.000000
Mg 12.83940448 7.22537190 23.57780887 0.000000 0.000000 0.000000
Mg 7.36742351 9.20394800 30.49133702 -2.308596 -1.100626 3.283233
Mg 17.05515996 3.43447403 24.08759424 6.124817 4.775057 -4.927791
Cl 7.54753397 7.14563561 32.27732436 0.059794 1.307863 -0.816132
Cl 3.13402132 13.86897200 27.82046745 -0.443191 -0.209193 -0.730378
Cl -7.13844171 0.87619103 26.60044011 -0.038888 -0.354963 -0.386944
O  8.75484941 -1.96676363 28.63185906 -0.156615 0.043987 0.919493
C  8.67650207 -2.33695748 30.05105203 2.180554 -0.871566 -0.299995
C  9.19084190 -1.15306413 30.84502230 -1.433380 0.189098 -0.010191
C  8.58386288 -0.00154202 30.05990389 1.622136 2.050249 -1.284869
C  8.47209718 -0.53217773 28.60402958 -1.188635 -0.600369 -1.395243
H  9.32608279 -3.21664437 30.30528129 -0.341573 0.276771 -0.809029
H  7.68140303 -2.62673549 30.30690781 -1.159031 0.004158 0.303344
H  10.25505633 -1.05791935 30.94934913 0.479901 -0.325123 -0.616763
H  8.79679357 -1.25347502 31.85087318 -0.259247 0.273807 0.549652
H  9.23510925 0.93110290 29.96714818 -0.536014 -0.957362 0.518358
H  7.64234940 0.36385815 30.45381165 -0.458029 -0.179356 0.131328
H  9.15504503 -0.15516481 27.77514958 -0.323736 0.152782 1.221662
H  7.41344323 -0.38374163 28.18436798 1.061846 -0.187810 0.576711
O  3.77049026 8.94870163 37.89288776 0.198529 -0.248728 -0.067157
C  4.41947774 10.14176176 38.36446657 0.137522 -0.174412 -0.333103
C  5.69037176 10.26020996 37.53440276 0.756548 -0.658532 0.437865
C  6.16608783 8.76146152 37.46579773 -0.751463 -0.500155 0.061729
C  4.80464248 7.96434073 37.52528432 0.228740 1.016065 1.150243
H  4.74575846 10.00994204 39.39832049 -0.478180 0.259160 0.529967
H  3.72062908 10.97890109 38.15871418 0.230521 -0.273339 0.607351
H  6.49246404 10.78695068 38.06506979 -0.087553 0.350084 0.048485
H  6.11980240 12.93562121 37.07108285 -0.317543 -0.303649 -0.184722
H  6.83224339 8.56987250 38.35586425 -0.567907 -0.092956 -0.874122
H  6.65566610 8.44166052 36.51930744 0.235843 0.552081 0.511472
H  4.79492867 7.17777405 38.29133707 0.096183 -0.077118 -0.034005
H  4.49630454 7.54870182 36.57645557 -0.064912 -0.222812 -0.525589
O  3.69556642 8.96339121 25.40637756 -1.069638 0.433964 -2.218748
C  6.68282221 8.16692288 28.90089703 0.383708 1.963905 -0.241030
C  6.21809393 7.40795121 27.76296398 -0.246527 1.006707 -2.688101
C  4.81648138 7.69652460 27.10305834 -0.077881 -0.222113 2.634479
C  4.62270165 8.99875417 26.44144045 1.466557 1.480311 -0.051686
H  6.98459106 9.32791492 28.73947078 -0.883316 -2.564307 -0.430325
H  6.80407892 7.57943416 29.84122960 -0.015438 0.010351 -0.525967
H  6.22535398 6.37778225 27.94671843 0.050001 -1.871240 0.920742
H  6.91093757 7.43972372 26.88384330 0.188176 0.356974 0.102956
H  4.09897351 7.64143215 27.93356059 -0.252519 0.104457 0.095501
H  4.48842097 6.87079478 26.50098791 0.191879 -0.730599 -1.007310
H  5.65571849 9.36159207 26.05780386 -0.598903 -0.434160 0.050646
H  4.39557382 9.82116945 27.13843047 -0.215760 -0.198404 0.250069
O  5.98227934 11.02737637 30.47003279 0.634739 0.971243 -1.375541
C  6.29609331 12.49362732 30.68141110 0.497801 -0.718477 -0.994996
C  6.95641449 12.68395312 32.06419326 0.732636 -0.492077 -2.766765
C  6.95721321 11.32228482 32.64629351 -0.390040 -1.859637 1.811611
C  6.04437219 10.40620565 31.68920687 -2.736594 3.794713 4.744417
H  5.34696289 13.00132112 30.59705741 -0.475000 0.292877 -0.166353
H  6.96894452 12.75572460 29.84707980 -0.377403 -0.018959 0.111548
H  6.33433751 13.37411748 32.52853905 -0.910906 1.423152 1.596022
H  7.96335586 13.08529673 31.88224355 -0.097652 0.061609 0.394919
H  6.61441977 11.32862391 33.72750366 0.004198 -0.252317 -1.151600
H  7.97044495 10.89380759 32.71648582 -0.173625 0.104126 -0.040499
H  4.98871947 10.28540440 32.13109076 1.257810 0.289164 -0.078510
H  6.35882412 9.42623601 31.78133357 0.119668 -2.637098 0.764648
O  8.65444208 10.83348718 29.84744697 -0.728710 -0.527032 -0.881750
C  9.63826976 11.65934500 29.08094295 0.867858 -0.265162 0.574018
C  11.00969535 11.32952942 29.80827347 -1.795504 0.262529 -0.722774
C  10.83574403 9.91976451 30.31746138 -1.834711 -0.708574 -0.711573
C  9.31379320 9.82860504 30.69617189 4.044989 1.387096 0.182545
H  9.32437317 12.76913584 29.03790411 0.274120 -1.675353 0.477823
H  9.63018347 11.24738856 28.07772359 0.044409 0.046648 -0.570978
H  11.03287693 11.96241774 30.65847822 0.590088 1.073643 0.948989
H  11.87433007 11.45111944 29.15319397 0.020567 0.096939 0.055859
H  11.46419883 9.69950845 31.18501942 0.282076 -0.490130 -0.267056
H  10.80698727 9.26019995 29.45219849 1.283488 -0.690713 -0.006639
H  9.25028067 10.33014539 31.60480506 -0.186257 0.340219 2.475380
H  8.97970044 8.72361442 30.90300489 1.046723 0.780777 -0.794678
O  6.79922276 4.41378465 29.30628962 -0.906809 -0.893510 -0.851928
C  5.99558278 4.60940045 30.48850643 -0.396493 -2.295864 -0.324782
C  4.52451767 4.21041400 30.16996128 0.112648 -1.262725 1.255877
C  4.53955590 4.08424812 28.69018784 -0.505001 -0.962795 -2.504783
C  5.94922287 3.55688776 28.45563277 1.111578 -0.385395 0.963468
H  6.01632122 5.61025499 30.68751651 0.428806 2.863862 1.047307
H  6.39245431 4.00142233 31.31416682 0.054819 0.253391 0.056451
H  3.81890851 4.91789847 30.62762820 -0.090841 -0.168032 -0.203184
H  4.39682576 3.19794755 30.59454802 -0.439045 0.270191 0.220673
H  4.59311312 5.08003062 28.30547631 -0.478364 0.975562 -0.774755
H  3.76647397 3.49085542 28.02392336 1.053960 0.995281 1.665595
H  6.33659655 3.63701370 27.42704038 -0.181234 0.135505 -0.006336
H  6.03707139 2.49119795 28.80923095 0.058559 0.659479 -0.367876
Al 7.61951815 -0.61759817 34.90540442 0.867180 -0.804167 0.263660
Cl 8.10500002 -2.68450120 34.29172519 0.015292 -0.088139 -0.144190
Cl 6.70563945 0.32737037 33.25338002 -0.604271 0.701051 -1.035306
C  9.44663772 0.15914949 35.20308920 -0.708752 1.516128 0.522096
C  10.45332072 -0.63357627 35.60015752 1.787709 -1.486358 0.283327
C  11.83946577 -0.19654870 36.20892092 0.628569 0.128197 -2.923297
C  12.15686407 1.39621200 36.11331484 0.359082 -0.433094 -1.171336
C  10.92032614 2.14575984 35.64616053 0.889766 0.641960 0.716675
C  9.72031393 1.59561780 35.33120455 1.313618 -1.002693 -0.387226
H  10.30830847 -1.72927321 35.42977726 0.440879 0.782689 0.259350
H  12.58653490 -0.71663080 35.49584585 -0.831790 0.721132 0.701735
H  13.07194424 1.65713136 35.37074724 -1.853993 -0.763976 1.342005
H  10.97962328 3.25263561 35.64539406 0.101680 -0.554409 -0.056262
H  9.05160038 2.30716477 34.96374597 -1.728057 0.994407 -0.403584
C  6.34105986 -0.77033144 36.36537249 -1.521412 -0.005706 0.023660
C  4.98200602 -0.38228651 36.17483795 -0.368737 0.945518 0.615883
C  4.00881912 -0.63891656 37.16884711 -0.926964 1.224476 -0.227231
C  4.37088865 -1.18664278 38.41337658 -0.121738 -0.140161 -0.903589
C  5.71176798 -1.49663139 38.66158946 -0.069879 -1.030611 -0.172745
C  6.63369032 -1.40303403 37.60063383 1.659019 2.419931 0.506747
H  4.67082299 0.41824163 35.45687642 0.493081 -1.183217 -0.143907
H  2.96515668 -0.17544832 37.01264257 1.485598 -0.991053 0.332947
H  3.59108269 -1.34358480 39.13429860 -0.219979 -0.059402 0.582779
H  6.00501086 -1.94542513 39.62751362 -0.032270 0.470772 -0.386958
H  7.71824888 -1.19259707 37.83393933 -0.772389 -1.602968 0.118038
172
Lattice="12.836 0 0 6.418 11.116 0 0 0 55" Properties=species:S:1:pos:R:3:forces:R:3 energy=-124874.208382 charge=0 pbc="T T T"
Mg 0.00000000 1.85271700 16.00000000 0.000000 0.000000 0.000000
Mg 3.20900000 1.85271700 16.00000000 0.000000 0.000000 0.000000
Mg 6.41800000 1.85271700 16.00000000 0.000000 0.000000 0.000000
Mg 9.62700000 1.85271700 16.00000000 0.000000 0.000000 0.000000
Mg 1.60450000 4.63179300 16.00000000 0.000000 0.000000 0.000000
Mg 4.81350000 4.63179300 16.00000000 0.000000 0.000000 0.000000
Mg 8.02250000 4.63179300 16.00000000 0.000000 0.000000 0.000000
Mg 11.23150000 4.63179300 16.00000000 0.000000 0.000000 0.000000
Mg 3.20900000 7.41086800 16.00000000 0.000000 0.000000 0.000000
Mg 6.41800000 7.41086800 16.00000000 0.000000 0.000000 0.000000
Mg 9.62700000 7.41086800 16.00000000 0.000000 0.000000 0.000000
Mg 12.83600000 7.41086800 16.00000000 0.000000 0.000000 0.000000
Mg 4.81350000 10.18994400 16.00000000 0.000000 0.000000 0.000000
Mg 8.02250000 10.18994400 16.00000000 0.000000 0.000000 0.000000
Mg 11.23150000 10.18994400 16.00000000 0.000000 0.000000 0.000000
Mg 14.44050000 10.18994400 16.00000000 0.000000 0.000000 0.000000
Mg 0.00000000 0.00000000 18.60550000 0.000000 0.000000 0.000000
Mg 3.20900000 0.00000000 18.60550000 0.000000 0.000000 0.000000
Mg 6.41800000 0.00000000 18.60550000 0.000000 0.000000 0.000000
Mg 9.62700000 0.00000000 18.60550000 0.000000 0.000000 0.000000
Mg 1.60450000 2.77907600 18.60550000 0.000000 0.000000 0.000000
Mg 4.81350000 2.77907600 18.60550000 0.000000 0.000000 0.000000
Mg 8.02250000 2.77907600 18.60550000 0.000000 0.000000 0.000000
Mg 11.23150000 2.77907600 18.60550000 0.000000 0.000000 0.000000
Mg 3.20900000 5.55815100 18.60550000 0.000000 0.000000 0.000000
Mg 6.41800000 5.55815100 18.60550000 0.000000 0.000000 0.000000
Mg 9.62700000 5.55815100 18.60550000 0.000000 0.000000 0.000000
Mg 12.83600000 5.55815100 18.60550000 0.000000 0.000000 0.000000
Mg 4.81350000 8.33722700 18.60550000 0.000000 0.000000 0.000000
Mg 8.02250000 8.33722700 18.60550000 0.000000 0.000000 0.000000
Mg 11.23150000 8.33722700 18.60550000 0.000000 0.000000 0.000000
Mg 14.44050000 8.33722700 18.60550000 0.000000 0.000000 0.000000
Mg -1.63565673 1.32894731 21.13694199 0.000000 0.000000 0.000000
Mg 1.82832641 0.16298206 22.46052149 0.000000 0.000000 0.000000
Mg 4.43030181 0.26769989 21.44957794 0.000000 0.000000 0.000000
Mg 8.11142346 0.77312957 20.90194588 0.000000 0.000000 0.000000
Mg -0.24426921 3.62072177 21.86135973 0.000000 0.000000 0.000000
Mg 3.09404540 2.93896108 21.80524767 0.000000 0.000000 0.000000
Mg 6.52134854 1.59182397 23.47647249 0.000000 0.000000 0.000000
Mg 6.30795819 3.35071631 21.47202163 0.000000 0.000000 0.000000
Mg 1.77703248 5.98953289 21.04685082 0.000000 0.000000 0.000000
Mg 4.16917479 7.05405354 21.29736923 0.000000 0.000000 0.000000
Mg 9.33712534 4.26411954 21.51014390 0.000000 0.000000 0.000000
Mg 11.24510997 6.73471124 20.93762793 0.000000 0.000000 0.000000
Mg 3.18395033 9.75248723 21.07160998 0.000000 0.000000 0.000000
Mg 6.18755095 9.31031793 20.86780074 0.000000 0.000000 0.000000
Mg 8.96279501 8.70104459 21.36873081 0.000000 0.000000 0.000000
Mg 12.93369484 9.42482371 21.77137060 0.000000 0.000000 0.000000
Mg -1.46630623 -0.98378789 23.73516760 0.000000 0.000000 0.000000
Mg 1.42033034 -0.73710441 25.37993264 0.000000 0.000000 0.000000
Mg 5.25735294 -0.89978848 24.34029769 0.000000 0.000000 0.000000
Mg 8.52106789 -1.09816031 24.15545485 0.000000 0.000000 0.000000
Mg -0.20642827 1.49612919 24.42702497 0.000000 0.000000 0.000000
Mg 3.66413011 2.05440865 24.81243503 0.000000 0.000000 0.000000
Mg 7.91378062 1.97916293 26.26003472 0.000000 0.000000 0.000000
Mg 9.46412679 2.38576573 23.32825590 0.000000 0.000000 0.000000
Mg 1.67994812 4.55016414 23.82996795 0.000000 0.000000 0.000000
Mg 4.86282903 5.26696710 24.24964481 0.000000 0.000000 0.000000
Mg 7.87408533 4.82439194 24.38848238 0.000000 0.000000 0.000000
Mg 10.93729305 4.72711925 23.90973299 0.000000 0.000000 0.000000
Mg 2.93460366 7.43970087 23.82708440 0.000000 0.000000 0.000000
Mg 6.52377012 7.82075211 23.46216890 0.000000 0.000000 0.000000
Mg 9.67135359 7.79864442 24.25679102 0.000000 0.000000 0.000000
Mg 12.83940448 7.22537190 23.57780887 0.000000 0.000000 0.000000
Mg 5.94773465 11.91024506 28.79095639 1.128472 -2.755450 -1.478519
Mg 21.37824718 3.33180282 27.21502034 3.514948 10.182581 5.915383
Cl 5.45312992 9.47194045 29.83601336 0.242652 0.749830 0.205577
Cl 3.56776843 12.04905642 26.26339090 0.060211 -1.677587 -0.568010
Cl -6.81690414 2.59168181 27.49101919 -0.182140 0.203221 -0.216340
O  7.28403230 -1.56998440 26.03075062 -0.726947 1.092965 -0.598917
C  6.80763255 -2.83160073 26.58403147 1.350619 -0.391885 1.797574
C  5.57421507 -2.55059703 27.41739804 0.006050 0.928655 -1.373050
C  5.76907696 -1.06769530 27.79038744 -1.695519 0.197612 -0.298198
C  6.68970251 -0.41698602 26.80133151 0.432491 -1.545558 -0.194857
H  7.66525643 -3.18409109 27.20367668 -0.554995 -0.315931 -0.470965
H  6.63053805 -3.52425319 25.75813363 0.123735 -0.176659 -0.031131
H  5.37920707 -3.22060359 28.25429584 0.281638 -0.022549 0.194223
H  4.71111980 -2.61053305 26.72133973 -0.081436 -0.065402 0.355790
H  6.09380583 -0.90753270 28.78603757 0.626565 -0.017506 1.124214
H  4.79123613 -0.59765727 27.72391349 -0.326137 0.224655 0.035402
H  7.50775557 0.08731689 27.32847137 0.253860 -0.121034 0.170792
H  6.20231248 0.23920526 26.06702129 -0.121625 0.045229 0.083398
O  3.76032431 8.08527627 33.86274043 0.480425 -0.349930 0.254722
C  4.05246051 9.21043881 34.76310837 -1.265735 -0.453549 -0.635396
C  5.39865682 9.66180066 34.27307577 -0.818018 0.765145 -0.486676
C  6.09487480 8.30273617 34.11183818 1.791404 1.815623 -0.476337
C  5.05924317 7.58869375 33.37203536 -1.650542 -2.378691 -0.750280
H  4.24521341 8.83576524 35.76758514 -0.530207 -0.171655 0.564425
H  3.11782535 9.86836794 34.73348632 1.396006 -0.468724 -0.044042
H  5.81535141 10.31819086 34.97202935 1.119502 0.771831 1.752704
H  6.64616449 11.95973741 34.01003657 -0.208605 0.261792 0.310269
H  6.41704035 7.87237840 35.03431465 -0.218920 -0.479267 1.102825
H  7.04672895 8.44410706 33.56445856 -0.265258 -0.120372 -0.208281
H  5.06700267 6.47396740 33.50568806 0.004544 0.640822 0.134354
H  5.12328247 7.72709403 32.27826798 -0.102899 0.370469 0.053531
O  3.11747927 7.35442406 26.00550623 -0.684215 -0.391154 -1.400655
C  6.31893757 10.60995825 27.36880223 2.454597 -0.709236 -0.192928
C  5.89150987 9.68817348 26.40079235 -2.442120 -1.500848 0.173849
C  5.04102980 8.37279728 26.76960189 1.844232 1.907390 0.550709
C  3.64841766 8.60116687 26.34984671 -0.183332 -2.511116 -1.304151
H  6.03642897 11.58376750 27.03807516 -0.739610 1.257461 -1.761828
H  6.66249821 9.25023751 25.71097409 -0.887200 -1.563430 -0.174507
H  3.43074956 14.40030174 26.06188204 0.104022 0.971165 -0.487925
H  5.14762450 10.26583153 25.80134058 0.274539 -0.265952 -0.774265
H  5.09299061 8.25812585 27.84927675 0.108808 -0.134636 0.393763
H  5.49132021 7.52522414 26.29103139 0.181296 -0.700867 -0.553255
H  3.61717760 9.19412014 25.38451047 0.269197 0.693055 0.445392
H  3.08744219 9.10125514 27.09755160 -0.773591 0.941377 0.812226