172
Lattice="12.836 0 0 6.418 11.116 0 0 0 55" Properties=species:S:1:pos:R:3:forces:R:3 energy=-124880.762503 charge=0 pbc="T T T" config_type=react_bare_clstrip_0.00
Mg 0.000000 1.852717 16.000000 0.000000 0.000000 0.000000
Mg 3.209000 1.852717 16.000000 0.000000 0.000000 0.000000
Mg 6.418000 1.852717 16.000000 0.000000 0.000000 0.000000
Mg 9.627000 1.852717 16.000000 0.000000 0.000000 0.000000
Mg 1.604500 4.631793 16.000000 0.000000 0.000000 0.000000
Mg 4.813500 4.631793 16.000000 0.000000 0.000000 0.000000
Mg 8.022500 4.631793 16.000000 0.000000 0.000000 0.000000
Mg 11.231500 4.631793 16.000000 0.000000 0.000000 0.000000
Mg 3.209000 7.410868 16.000000 0.000000 0.000000 0.000000
Mg 6.418000 7.410868 16.000000 0.000000 0.000000 0.000000
Mg 9.627000 7.410868 16.000000 0.000000 0.000000 0.000000
Mg 12.836000 7.410868 16.000000 0.000000 0.000000 0.000000
Mg 4.813500 10.189944 16.000000 0.000000 0.000000 0.000000
Mg 8.022500 10.189944 16.000000 0.000000 0.000000 0.000000
Mg 11.231500 10.189944 16.000000 0.000000 0.000000 0.000000
Mg 14.440500 10.189944 16.000000 0.000000 0.000000 0.000000
Mg 0.000000 0.000000 18.605500 0.000000 0.000000 0.000000
Mg 3.209000 0.000000 18.605500 0.000000 0.000000 0.000000
Mg 6.418000 0.000000 18.605500 0.000000 0.000000 0.000000
Mg 9.627000 0.000000 18.605500 0.000000 0.000000 0.000000
Mg 1.604500 2.779076 18.605500 0.000000 0.000000 0.000000
Mg 4.813500 2.779076 18.605500 0.000000 0.000000 0.000000
Mg 8.022500 2.779076 18.605500 0.000000 0.000000 0.000000
Mg 11.231500 2.779076 18.605500 0.000000 0.000000 0.000000
Mg 3.209000 5.558151 18.605500 0.000000 0.000000 0.000000
Mg 6.418000 5.558151 18.605500 0.000000 0.000000 0.000000
Mg 9.627000 5.558151 18.605500 0.000000 0.000000 0.000000
Mg 12.836000 5.558151 18.605500 0.000000 0.000000 0.000000
Mg 4.813500 8.337227 18.605500 0.000000 0.000000 0.000000
Mg 8.022500 8.337227 18.605500 0.000000 0.000000 0.000000
Mg 11.231500 8.337227 18.605500 0.000000 0.000000 0.000000
Mg 14.440500 8.337227 18.605500 0.000000 0.000000 0.000000
Mg -1.635657 1.328947 21.136942 0.000000 0.000000 0.000000
Mg 1.828326 0.162982 22.460521 0.000000 0.000000 0.000000
Mg 4.430302 0.267700 21.449578 0.000000 0.000000 0.000000
Mg 8.111423 0.773130 20.901946 0.000000 0.000000 0.000000
Mg -0.244269 3.620722 21.861360 0.000000 0.000000 0.000000
Mg 3.094045 2.938961 21.805248 0.000000 0.000000 0.000000
Mg 6.521349 1.591824 23.476472 0.000000 0.000000 0.000000
Mg 6.307958 3.350716 21.472022 0.000000 0.000000 0.000000
Mg 1.777032 5.989533 21.046851 0.000000 0.000000 0.000000
Mg 4.169175 7.054054 21.297369 0.000000 0.000000 0.000000
Mg 9.337125 4.264120 21.510144 0.000000 0.000000 0.000000
Mg 11.245110 6.734711 20.937628 0.000000 0.000000 0.000000
Mg 3.183950 9.752487 21.071610 0.000000 0.000000 0.000000
Mg 6.187551 9.310318 20.867801 0.000000 0.000000 0.000000
Mg 8.962795 8.701045 21.368731 0.000000 0.000000 0.000000
Mg 12.933695 9.424824 21.771371 0.000000 0.000000 0.000000
Mg -1.466306 -0.983788 23.735168 0.000000 0.000000 0.000000
Mg 1.420330 -0.737104 25.379933 0.000000 0.000000 0.000000
Mg 5.257353 -0.899788 24.340298 0.000000 0.000000 0.000000
Mg 8.521068 -1.098160 24.155455 0.000000 0.000000 0.000000
Mg -0.206428 1.496129 24.427025 0.000000 0.000000 0.000000
Mg 3.664130 2.054409 24.812435 0.000000 0.000000 0.000000
Mg 7.913781 1.979163 26.260035 0.000000 0.000000 0.000000
Mg 9.464127 2.385766 23.328256 0.000000 0.000000 0.000000
Mg 1.679948 4.550164 23.829968 0.000000 0.000000 0.000000
Mg 4.862829 5.266967 24.249645 0.000000 0.000000 0.000000
Mg 7.874085 4.824392 24.388482 0.000000 0.000000 0.000000
Mg 10.937293 4.727119 23.909733 0.000000 0.000000 0.000000
Mg 2.934604 7.439701 23.827084 0.000000 0.000000 0.000000
Mg 6.523770 7.820752 23.462169 0.000000 0.000000 0.000000
Mg 9.671354 7.798644 24.256791 0.000000 0.000000 0.000000
Mg 12.839404 7.225372 23.577809 0.000000 0.000000 0.000000
Mg 7.973075 8.353572 28.995261 -1.840870 -0.537088 -5.231498
Mg 27.607462 1.330392 25.187469 -4.447598 -1.776260 6.938006
Cl 6.635414 7.615651 30.764805 -0.037731 0.099909 -0.077285
Cl 3.593293 11.497527 25.188273 -0.035320 1.011478 1.231621
Cl -4.108159 6.640794 27.601922 0.439817 -0.760876 -0.621750
O  7.011588 -1.266652 25.882612 -0.081286 -0.205383 0.606087
C  6.996246 -2.453342 26.765355 0.096870 -1.698907 0.006493
C  5.846604 -2.238077 27.771482 0.272273 -0.710537 -1.632114
C  5.845136 -0.734997 27.940175 0.949040 0.953094 1.477120
C  6.864694 -0.177774 26.870649 -0.280605 -1.885775 1.595365
H  7.972590 -2.572267 27.237281 0.298164 0.555051 0.355993
H  6.949229 -3.384382 26.142418 -0.473588 0.721373 0.057712
H  6.056501 -2.799702 28.694203 -0.232547 0.086454 -0.100220
H  4.918334 -2.572479 27.276563 -0.001915 -0.191017 0.382764
H  6.288213 -0.567355 28.953481 -0.370981 0.511913 -0.506727
H  4.825856 -0.277751 27.920641 0.691681 -0.120222 -0.299437
H  7.906582 0.023589 27.247047 -0.651106 -0.184331 0.336271
H  6.389033 0.589270 26.332169 -0.868924 1.396457 -0.891371
O  4.514153 10.244644 35.048143 0.285304 0.111904 -0.282306
C  5.155474 11.521306 35.278322 -2.339342 0.446881 0.787672
C  6.438255 11.513998 34.512739 1.067544 -1.076377 -0.896709
C  6.856243 9.954869 34.644107 -1.419296 1.572775 -0.195677
C  5.577963 9.249409 35.072049 -1.473635 -0.943981 0.242068
H  5.293376 11.633668 36.383117 0.431894 -0.007905 -0.428888
H  4.358816 12.290156 35.036760 0.946625 -0.532627 -0.249652
H  7.162044 12.152932 34.995744 0.585949 0.152143 0.595509
H  6.745971 14.029461 34.009802 -0.457325 -0.697581 -1.624793
H  7.608304 9.811463 35.364639 1.319671 -0.027799 1.059766
H  7.182937 9.557843 33.712788 0.517103 -0.255481 -1.073407
H  5.623662 8.841436 36.156440 0.058955 0.147840 -1.729803
H  5.236940 8.491333 34.273766 0.541270 0.543053 1.490310
O  4.956928 7.431246 24.790789 -1.788216 -0.376714 0.379601
C  7.238481 9.660405 27.474225 0.741262 1.238537 0.913303
C  5.944255 9.466508 26.772825 1.405744 -0.179438 0.172838
C  5.177125 8.235112 27.128999 -2.122848 0.101235 -0.368536
C  4.232360 7.994190 25.911323 0.496291 1.232115 1.752714
H  7.249059 10.661893 27.973178 -0.214498 -0.438275 -0.168789
H  6.197089 9.227963 25.670985 -0.686824 0.421393 0.169595
H  6.767541 11.525747 26.280542 0.807016 0.625807 -1.093302
H  5.356707 10.389245 26.843035 -0.386948 -0.438341 -0.413248
H  4.557885 8.414291 28.034550 0.365367 -0.101037 -0.188105
H  5.714762 7.321757 27.249505 1.008092 -0.450136 0.402707
H  3.864333 9.075686 25.748835 0.118099 -1.430526 -0.342491
H  3.356652 7.431079 26.303826 0.215087 -0.379231 -0.703446
O  5.858770 13.436450 26.628675 -1.631475 2.155494 0.077295
C  6.562904 13.527003 27.897168 0.481542 1.402342 0.296181
C  5.622580 14.262999 28.876582 2.903055 1.575685 -0.132730
C  4.523352 14.993740 28.109429 0.684019 -2.198476 -0.961701
C  4.917545 14.734269 26.631670 0.454072 -1.303422 1.044936
H  7.423736 14.205731 27.738392 0.139399 -0.389885 -0.127492
H  6.948575 12.561014 28.282360 -0.508232 0.144761 -0.485250
H  6.296011 14.863377 29.585056 -0.983607 -0.160181 -1.042112
H  5.190642 13.601564 29.508748 -1.542478 -2.481065 2.114309
H  4.459017 16.012064 28.411698 -0.480388 1.044711 -0.169282
H  3.620272 14.410582 28.286776 -0.557433 0.392571 0.295216
H  5.434332 15.643542 26.332653 0.626413 -0.070610 -0.828457
H  4.109244 14.392478 25.954398 0.162384 0.430615 0.306479
O  10.626136 15.774942 27.320790 0.643009 0.773570 -1.747011
C  10.605299 15.230874 28.614522 0.122491 -2.273394 2.596510
C  12.067745 15.208139 29.210150 -0.084430 -0.466105 -1.082740
C  12.759255 14.954471 27.842871 2.326931 2.046872 1.049195
C  11.996729 15.768680 26.780346 0.355884 -2.502009 0.167611
H  10.254298 14.142057 28.645015 0.294950 0.912257 -0.574326
H  9.867249 15.725054 29.259866 0.065701 0.600365 -0.247725
H  12.357024 14.363143 29.940560 -0.784186 1.292036 -0.891020
H  12.426124 16.198129 29.549848 -0.323582 -0.213276 0.316047
H  12.676070 13.939340 27.567014 -0.357449 -1.844485 -0.160483
H  13.878439 15.204751 27.941085 -1.368634 -0.066067 -0.404356
H  12.180803 15.054073 25.764945 -0.944269 1.669854 1.867693
H  12.426152 16.767629 26.637724 -0.241582 0.094563 -0.073078
O  9.657646 8.746752 30.170278 -0.468872 -0.759075 -1.075940
C  10.364244 7.554950 30.770395 0.334158 0.432237 0.033386
C  11.409473 8.246943 31.721262 -2.507177 -0.431212 -0.043265
C  10.772770 9.695125 31.944059 1.640214 -1.034720 1.256347
C  9.487130 9.733642 31.183830 -0.538388 0.679133 0.721417
H  10.761804 7.016425 29.837356 -0.579158 0.440278 1.486605
H  9.636771 6.948515 31.404989 0.567906 0.520267 -1.111504
H  12.348462 8.417268 31.276623 1.342535 -0.157515 -0.779580
H  11.560713 7.622841 32.613649 -0.129179 0.291101 -0.004131
H  11.626052 10.315286 31.613260 -0.867285 0.604958 -0.168668
H  10.597538 9.909976 32.997997 0.103029 0.031230 0.303499
H  9.305132 10.731659 30.798122 0.221743 0.311930 -1.095412
H  8.537348 9.607920 31.764623 0.707647 -0.807693 0.078291
Al 9.222182 -0.160173 30.518577 1.528765 0.136034 0.855946
Cl 10.037852 -0.120499 28.389633 -0.582042 0.003187 0.556913
Cl 7.634956 1.218128 30.567087 -1.390698 0.777392 -0.408777
C  10.588020 0.840181 31.638135 1.528720 -1.073917 -0.004797
C  11.702520 0.213225 32.144906 1.733036 0.219317 1.663960
C  12.896561 0.914080 33.032445 -1.748426 0.045446 -1.117538
C  12.831635 2.469522 32.968541 0.057727 0.371444 2.549172
C  11.480814 2.981510 32.632144 -0.820951 1.974197 -0.681113
C  10.565979 2.270615 31.905104 -0.562472 1.409049 0.439560
H  11.952332 -0.858138 32.260911 -0.898853 0.173900 -0.932806
H  13.864512 0.604799 32.598360 -0.205998 -0.210172 0.110308
H  13.495995 2.978998 32.268070 0.580963 -0.320670 -0.364386
H  11.332369 4.130548 32.790511 0.073791 -2.142902 -0.317456
H  9.696798 2.849403 31.546740 0.179589 -0.321134 0.202531
C  8.679662 -1.876982 31.307326 0.174067 -1.988753 -0.330571
C  8.052176 -1.951846 32.555004 -0.846816 1.018173 1.175337
C  7.778087 -3.119252 33.304260 -0.002950 -0.004437 -0.390004
C  8.293606 -4.318196 32.858617 -0.094294 -0.455449 -0.730457
C  8.921222 -4.323569 31.573474 -0.453085 -2.348793 1.039305
C  9.028367 -3.190298 30.801778 0.966165 1.480158 -0.072968
H  7.713377 -1.041503 33.058105 0.026421 0.210720 -0.279949
H  7.073002 -3.170571 34.143735 0.543828 0.622351 0.087221
H  8.107386 -5.219552 33.478473 0.349198 0.299489 -0.705231
H  9.234367 -5.342708 31.221205 0.019474 1.092799 0.009548
H  9.635239 -3.245169 29.892375 -0.339827 -0.117894 -0.141246
172
Lattice="12.836 0 0 6.418 11.116 0 0 0 55" Properties=species:S:1:pos:R:3:forces:R:3 energy=-124880.740221 charge=0 pbc="T T T" config_type=react_bare_clstrip_0.12
Mg 0.000000 1.852717 16.000000 0.000000 0.000000 0.000000
Mg 3.209000 1.852717 16.000000 0.000000 0.000000 0.000000
Mg 6.418000 1.852717 16.000000 0.000000 0.000000 0.000000
Mg 9.627000 1.852717 16.000000 0.000000 0.000000 0.000000
Mg 1.604500 4.631793 16.000000 0.000000 0.000000 0.000000
Mg 4.813500 4.631793 16.000000 0.000000 0.000000 0.000000
Mg 8.022500 4.631793 16.000000 0.000000 0.000000 0.000000
Mg 11.231500 4.631793 16.000000 0.000000 0.000000 0.000000
Mg 3.209000 7.410868 16.000000 0.000000 0.000000 0.000000
Mg 6.418000 7.410868 16.000000 0.000000 0.000000 0.000000
Mg 9.627000 7.410868 16.000000 0.000000 0.000000 0.000000
Mg 12.836000 7.410868 16.000000 0.000000 0.000000 0.000000
Mg 4.813500 10.189944 16.000000 0.000000 0.000000 0.000000
Mg 8.022500 10.189944 16.000000 0.000000 0.000000 0.000000
Mg 11.231500 10.189944 16.000000 0.000000 0.000000 0.000000
Mg 14.440500 10.189944 16.000000 0.000000 0.000000 0.000000
Mg 0.000000 0.000000 18.605500 0.000000 0.000000 0.000000
Mg 3.209000 0.000000 18.605500 0.000000 0.000000 0.000000
Mg 6.418000 0.000000 18.605500 0.000000 0.000000 0.000000
Mg 9.627000 0.000000 18.605500 0.000000 0.000000 0.000000
Mg 1.604500 2.779076 18.605500 0.000000 0.000000 0.000000
Mg 4.813500 2.779076 18.605500 0.000000 0.000000 0.000000
Mg 8.022500 2.779076 18.605500 0.000000 0.000000 0.000000
Mg 11.231500 2.779076 18.605500 0.000000 0.000000 0.000000
Mg 3.209000 5.558151 18.605500 0.000000 0.000000 0.000000
Mg 6.418000 5.558151 18.605500 0.000000 0.000000 0.000000
Mg 9.627000 5.558151 18.605500 0.000000 0.000000 0.000000
Mg 12.836000 5.558151 18.605500 0.000000 0.000000 0.000000
Mg 4.813500 8.337227 18.605500 0.000000 0.000000 0.000000
Mg 8.022500 8.337227 18.605500 0.000000 0.000000 0.000000
Mg 11.231500 8.337227 18.605500 0.000000 0.000000 0.000000
Mg 14.440500 8.337227 18.605500 0.000000 0.000000 0.000000
Mg -1.635657 1.328947 21.136942 0.000000 0.000000 0.000000
Mg 1.828326 0.162982 22.460521 0.000000 0.000000 0.000000
Mg 4.430302 0.267700 21.449578 0.000000 0.000000 0.000000
Mg 8.111423 0.773130 20.901946 0.000000 0.000000 0.000000
Mg -0.244269 3.620722 21.861360 0.000000 0.000000 0.000000
Mg 3.094045 2.938961 21.805248 0.000000 0.000000 0.000000
Mg 6.521349 1.591824 23.476472 0.000000 0.000000 0.000000
Mg 6.307958 3.350716 21.472022 0.000000 0.000000 0.000000
Mg 1.777032 5.989533 21.046851 0.000000 0.000000 0.000000
Mg 4.169175 7.054054 21.297369 0.000000 0.000000 0.000000
Mg 9.337125 4.264120 21.510144 0.000000 0.000000 0.000000
Mg 11.245110 6.734711 20.937628 0.000000 0.000000 0.000000
Mg 3.183950 9.752487 21.071610 0.000000 0.000000 0.000000
Mg 6.187551 9.310318 20.867801 0.000000 0.000000 0.000000
Mg 8.962795 8.701045 21.368731 0.000000 0.000000 0.000000
Mg 12.933695 9.424824 21.771371 0.000000 0.000000 0.000000
Mg -1.466306 -0.983788 23.735168 0.000000 0.000000 0.000000
Mg 1.420330 -0.737104 25.379933 0.000000 0.000000 0.000000
Mg 5.257353 -0.899788 24.340298 0.000000 0.000000 0.000000
Mg 8.521068 -1.098160 24.155455 0.000000 0.000000 0.000000
Mg -0.206428 1.496129 24.427025 0.000000 0.000000 0.000000
Mg 3.664130 2.054409 24.812435 0.000000 0.000000 0.000000
Mg 7.913781 1.979163 26.260035 0.000000 0.000000 0.000000
Mg 9.464127 2.385766 23.328256 0.000000 0.000000 0.000000
Mg 1.679948 4.550164 23.829968 0.000000 0.000000 0.000000
Mg 4.862829 5.266967 24.249645 0.000000 0.000000 0.000000
Mg 7.874085 4.824392 24.388482 0.000000 0.000000 0.000000
Mg 10.937293 4.727119 23.909733 0.000000 0.000000 0.000000
Mg 2.934604 7.439701 23.827084 0.000000 0.000000 0.000000
Mg 6.523770 7.820752 23.462169 0.000000 0.000000 0.000000
Mg 9.671354 7.798644 24.256791 0.000000 0.000000 0.000000
Mg 12.839404 7.225372 23.577809 0.000000 0.000000 0.000000
Mg 7.973075 8.353572 28.995261 -1.825147 -0.535944 -5.237601
Mg 27.607462 1.330392 25.187469 -4.446569 -1.773236 6.933832
Cl 6.635414 7.615651 30.764805 -0.050291 0.105659 -0.079163
Cl 3.593293 11.497527 25.188273 -0.025426 0.992389 1.264230
Cl -4.108159 6.640794 27.601922 0.435077 -0.758740 -0.620277
O  7.011588 -1.266652 25.882612 -0.098431 -0.266069 0.552192
C  6.996246 -2.453342 26.765355 0.087905 -1.667949 -0.014629
C  5.846604 -2.238077 27.771482 0.271430 -0.704962 -1.627223
C  5.845136 -0.734997 27.940175 0.951174 0.962098 1.459676
C  6.864694 -0.177774 26.870649 -0.369670 -1.825288 1.510062
H  7.972590 -2.572267 27.237281 0.296498 0.546527 0.356633
H  6.949229 -3.384382 26.142418 -0.470461 0.716708 0.057942
H  6.056501 -2.799702 28.694203 -0.234910 0.084522 -0.100001
H  4.918334 -2.572479 27.276563 -0.000347 -0.195379 0.381127
H  6.288213 -0.567355 28.953481 -0.360028 0.520595 -0.502637
H  4.825856 -0.277751 27.920641 0.689501 -0.125995 -0.293321
H  7.906582 0.023589 27.247047 -0.753550 -0.185247 0.335791
H  6.389033 0.589270 26.332169 -0.911572 1.382115 -0.899541
O  4.514153 10.244644 35.048143 0.283812 0.108703 -0.285191
C  5.155474 11.521306 35.278322 -2.339831 0.449333 0.790629
C  6.438255 11.513998 34.512739 1.065702 -1.076865 -0.899389
C  6.856243 9.954869 34.644107 -1.418950 1.572353 -0.195095
C  5.577963 9.249409 35.072049 -1.474394 -0.943284 0.243793
H  5.293376 11.633668 36.383117 0.431868 -0.008012 -0.430185
H  4.358816 12.290156 35.036760 0.947478 -0.533211 -0.249760
H  7.162044 12.152932 34.995744 0.585374 0.152051 0.594317
H  6.745971 14.029461 34.009802 -0.456839 -0.699332 -1.624549
H  7.608304 9.811463 35.364639 1.319078 -0.027873 1.058875
H  7.182937 9.557843 33.712788 0.517547 -0.255114 -1.072689
H  5.623662 8.841436 36.156440 0.059314 0.147569 -1.731171
H  5.236940 8.491333 34.273766 0.542253 0.543075 1.491322
O  4.956928 7.431246 24.790789 -1.792282 -0.362438 0.416115
C  7.238481 9.660405 27.474225 0.755091 1.241883 0.920633
C  5.944255 9.466508 26.772825 1.336536 -0.137406 0.274235
C  5.177125 8.235112 27.128999 -2.154382 0.146940 -0.370066
C  4.232360 7.994190 25.911323 0.488301 1.220731 1.741762
H  7.249059 10.661893 27.973178 -0.204221 -0.439910 -0.173731
H  6.197089 9.227963 25.670985 -0.712740 0.442839 0.174101
H  6.767541 11.525747 26.280542 0.806028 0.628963 -1.099690
H  5.356707 10.389245 26.843035 -0.478590 -0.372134 -0.358192
H  4.557885 8.414291 28.034550 0.335416 -0.105840 -0.155663
H  5.714762 7.321757 27.249505 1.002385 -0.449019 0.421597
H  3.864333 9.075686 25.748835 0.116681 -1.430879 -0.350018
H  3.356652 7.431079 26.303826 0.213467 -0.380300 -0.706113
O  5.858770 13.436450 26.628675 -1.631715 2.147189 0.078233
C  6.562904 13.527003 27.897168 0.477225 1.406631 0.295610
C  5.622580 14.262999 28.876582 2.899168 1.580640 -0.135261
C  4.523352 14.993740 28.109429 0.671376 -2.193823 -0.956121
C  4.917545 14.734269 26.631670 0.449770 -1.300405 1.050040
H  7.423736 14.205731 27.738392 0.142044 -0.392583 -0.126744
H  6.948575 12.561014 28.282360 -0.500315 0.144528 -0.486373
H  6.296011 14.863377 29.585056 -0.982386 -0.160662 -1.041202
H  5.190642 13.601564 29.508748 -1.549018 -2.476059 2.115838
H  4.459017 16.012064 28.411698 -0.473762 1.046442 -0.170674
H  3.620272 14.410582 28.286776 -0.545964 0.394037 0.301636
H  5.434332 15.643542 26.332653 0.626855 -0.070629 -0.831722
H  4.109244 14.392478 25.954398 0.163739 0.430348 0.304432
O  10.626136 15.774942 27.320790 0.639501 0.779277 -1.749130
C  10.605299 15.230874 28.614522 0.127886 -2.274531 2.596991
C  12.067745 15.208139 29.210150 -0.084501 -0.471645 -1.079615
C  12.759255 14.954471 27.842871 2.335030 2.040838 1.036661
C  11.996729 15.768680 26.780346 0.354606 -2.504597 0.166199
H  10.254298 14.142057 28.645015 0.295158 0.912071 -0.573890
H  9.867249 15.725054 29.259866 0.064476 0.600034 -0.246784
H  12.357024 14.363143 29.940560 -0.778493 1.285306 -0.886603
H  12.426124 16.198129 29.549848 -0.322711 -0.213892 0.313657
H  12.676070 13.939340 27.567014 -0.359651 -1.853221 -0.160465
H  13.878439 15.204751 27.941085 -1.362749 -0.064242 -0.400466
H  12.180803 15.054073 25.764945 -0.943062 1.671098 1.866637
H  12.426152 16.767629 26.637724 -0.238826 0.092755 -0.074582
O  9.657646 8.746752 30.170278 -0.472078 -0.761377 -1.075382
C  10.364244 7.554950 30.770395 0.334338 0.431737 0.032227
C  11.409473 8.246943 31.721262 -2.507494 -0.430823 -0.041743
C  10.772770 9.695125 31.944059 1.642593 -1.033122 1.256875
C  9.487130 9.733642 31.183830 -0.537823 0.678928 0.722187
H  10.761804 7.016425 29.837356 -0.579034 0.439963 1.485847
H  9.636771 6.948515 31.404989 0.568715 0.519620 -1.110718
H  12.348462 8.417268 31.276623 1.340225 -0.156580 -0.781753
H  11.560713 7.622841 32.613649 -0.130734 0.289963 -0.003903
H  11.626052 10.315286 31.613260 -0.867729 0.609106 -0.170113
H  10.597538 9.909976 32.997997 0.102400 0.030640 0.303120
H  9.305132 10.731659 30.798122 0.223676 0.312675 -1.095557
H  8.537348 9.607920 31.764623 0.707853 -0.807760 0.079057
Al 9.213239 -0.160608 30.541919 1.206900 0.409600 1.199761
Cl 9.772343 0.141959 28.423433 0.454227 -0.346823 -0.369257
Cl 7.634956 1.218128 30.567087 -1.721633 0.931499 -0.039619
C  10.588020 0.840181 31.638135 1.587732 -1.141632 0.074736
C  11.702520 0.213225 32.144906 1.741863 0.226586 1.659160
C  12.896561 0.914080 33.032445 -1.737727 0.043220 -1.121545
C  12.831635 2.469522 32.968541 0.062323 0.375095 2.551255
C  11.480814 2.981510 32.632144 -0.830923 1.955608 -0.694005
C  10.565979 2.270615 31.905104 -0.564091 1.445155 0.426677
H  11.952332 -0.858138 32.260911 -0.900994 0.172552 -0.924978
H  13.864512 0.604799 32.598360 -0.204551 -0.208701 0.112180
H  13.495995 2.978998 32.268070 0.581496 -0.322387 -0.364422
H  11.332369 4.130548 32.790511 0.071084 -2.144097 -0.316992
H  9.696798 2.849403 31.546740 0.176481 -0.327804 0.199860
C  8.679662 -1.876982 31.307326 0.182844 -2.127914 -0.290662
C  8.052176 -1.951846 32.555004 -0.844809 1.018479 1.189501
C  7.778087 -3.119252 33.304260 -0.005551 -0.007591 -0.396453
C  8.293606 -4.318196 32.858617 -0.093162 -0.449833 -0.730914
C  8.921222 -4.323569 31.573474 -0.452404 -2.351354 1.031230
C  9.028367 -3.190298 30.801778 0.962327 1.478659 -0.067913
H  7.713377 -1.041503 33.058105 0.026616 0.211634 -0.280081
H  7.073002 -3.170571 34.143735 0.543546 0.623738 0.085558
H  8.107386 -5.219552 33.478473 0.350859 0.299642 -0.705781
H  9.234367 -5.342708 31.221205 0.019099 1.093716 0.009208
H  9.635239 -3.245169 29.892375 -0.336368 -0.130935 -0.140958
172
Lattice="12.836 0 0 6.418 11.116 0 0 0 55" Properties=species:S:1:pos:R:3:forces:R:3 energy=-124880.370636 charge=0 pbc="T T T" config_type=react_bare_clstrip_0.25
Mg 0.000000 1.852717 16.000000 0.000000 0.000000 0.000000
Mg 3.209000 1.852717 16.000000 0.000000 0.000000 0.000000
Mg 6.418000 1.852717 16.000000 0.000000 0.000000 0.000000
Mg 9.627000 1.852717 16.000000 0.000000 0.000000 0.000000
Mg 1.604500 4.631793 16.000000 0.000000 0.000000 0.000000
Mg 4.813500 4.631793 16.000000 0.000000 0.000000 0.000000
Mg 8.022500 4.631793 16.000000 0.000000 0.000000 0.000000
Mg 11.231500 4.631793 16.000000 0.000000 0.000000 0.000000
Mg 3.209000 7.410868 16.000000 0.000000 0.000000 0.000000
Mg 6.418000 7.410868 16.000000 0.000000 0.000000 0.000000
Mg 9.627000 7.410868 16.000000 0.000000 0.000000 0.000000
Mg 12.836000 7.410868 16.000000 0.000000 0.000000 0.000000
Mg 4.813500 10.189944 16.000000 0.000000 0.000000 0.000000
Mg 8.022500 10.189944 16.000000 0.000000 0.000000 0.000000
Mg 11.231500 10.189944 16.000000 0.000000 0.000000 0.000000
Mg 14.440500 10.189944 16.000000 0.000000 0.000000 0.000000
Mg 0.000000 0.000000 18.605500 0.000000 0.000000 0.000000
Mg 3.209000 0.000000 18.605500 0.000000 0.000000 0.000000
Mg 6.418000 0.000000 18.605500 0.000000 0.000000 0.000000
Mg 9.627000 0.000000 18.605500 0.000000 0.000000 0.000000
Mg 1.604500 2.779076 18.605500 0.000000 0.000000 0.000000
Mg 4.813500 2.779076 18.605500 0.000000 0.000000 0.000000
Mg 8.022500 2.779076 18.605500 0.000000 0.000000 0.000000
Mg 11.231500 2.779076 18.605500 0.000000 0.000000 0.000000
Mg 3.209000 5.558151 18.605500 0.000000 0.000000 0.000000
Mg 6.418000 5.558151 18.605500 0.000000 0.000000 0.000000
Mg 9.627000 5.558151 18.605500 0.000000 0.000000 0.000000
Mg 12.836000 5.558151 18.605500 0.000000 0.000000 0.000000
Mg 4.813500 8.337227 18.605500 0.000000 0.000000 0.000000
Mg 8.022500 8.337227 18.605500 0.000000 0.000000 0.000000
Mg 11.231500 8.337227 18.605500 0.000000 0.000000 0.000000
Mg 14.440500 8.337227 18.605500 0.000000 0.000000 0.000000
Mg -1.635657 1.328947 21.136942 0.000000 0.000000 0.000000
Mg 1.828326 0.162982 22.460521 0.000000 0.000000 0.000000
Mg 4.430302 0.267700 21.449578 0.000000 0.000000 0.000000
Mg 8.111423 0.773130 20.901946 0.000000 0.000000 0.000000
Mg -0.244269 3.620722 21.861360 0.000000 0.000000 0.000000
Mg 3.094045 2.938961 21.805248 0.000000 0.000000 0.000000
Mg 6.521349 1.591824 23.476472 0.000000 0.000000 0.000000
Mg 6.307958 3.350716 21.472022 0.000000 0.000000 0.000000
Mg 1.777032 5.989533 21.046851 0.000000 0.000000 0.000000
Mg 4.169175 7.054054 21.297369 0.000000 0.000000 0.000000
Mg 9.337125 4.264120 21.510144 0.000000 0.000000 0.000000
Mg 11.245110 6.734711 20.937628 0.000000 0.000000 0.000000
Mg 3.183950 9.752487 21.071610 0.000000 0.000000 0.000000
Mg 6.187551 9.310318 20.867801 0.000000 0.000000 0.000000
Mg 8.962795 8.701045 21.368731 0.000000 0.000000 0.000000
Mg 12.933695 9.424824 21.771371 0.000000 0.000000 0.000000
Mg -1.466306 -0.983788 23.735168 0.000000 0.000000 0.000000
Mg 1.420330 -0.737104 25.379933 0.000000 0.000000 0.000000
Mg 5.257353 -0.899788 24.340298 0.000000 0.000000 0.000000
Mg 8.521068 -1.098160 24.155455 0.000000 0.000000 0.000000
Mg -0.206428 1.496129 24.427025 0.000000 0.000000 0.000000
Mg 3.664130 2.054409 24.812435 0.000000 0.000000 0.000000
Mg 7.913781 1.979163 26.260035 0.000000 0.000000 0.000000
Mg 9.464127 2.385766 23.328256 0.000000 0.000000 0.000000
Mg 1.679948 4.550164 23.829968 0.000000 0.000000 0.000000
Mg 4.862829 5.266967 24.249645 0.000000 0.000000 0.000000
Mg 7.874085 4.824392 24.388482 0.000000 0.000000 0.000000
Mg 10.937293 4.727119 23.909733 0.000000 0.000000 0.000000
Mg 2.934604 7.439701 23.827084 0.000000 0.000000 0.000000
Mg 6.523770 7.820752 23.462169 0.000000 0.000000 0.000000
Mg 9.671354 7.798644 24.256791 0.000000 0.000000 0.000000
Mg 12.839404 7.225372 23.577809 0.000000 0.000000 0.000000
Mg 7.973075 8.353572 28.995261 -1.814732 -0.534449 -5.247084
Mg 27.607462 1.330392 25.187469 -4.445446 -1.770519 6.930265
Cl 6.635414 7.615651 30.764805 -0.061654 0.110011 -0.078011
Cl 3.593293 11.497527 25.188273 -0.024372 0.976394 1.314633
Cl -4.108159 6.640794 27.601922 0.431472 -0.756747 -0.617609
O  7.011588 -1.266652 25.882612 -0.139786 -0.347497 0.481155
C  6.996246 -2.453342 26.765355 0.077769 -1.630499 -0.041794
C  5.846604 -2.238077 27.771482 0.269756 -0.701345 -1.621317
C  5.845136 -0.734997 27.940175 0.955140 0.973707 1.440868
C  6.864694 -0.177774 26.870649 -0.469765 -1.834015 1.377475
H  7.972590 -2.572267 27.237281 0.296589 0.538338 0.356225
H  6.949229 -3.384382 26.142418 -0.466169 0.713219 0.060350
H  6.056501 -2.799702 28.694203 -0.238943 0.083037 -0.102001
H  4.918334 -2.572479 27.276563 0.003028 -0.198800 0.381150
H  6.288213 -0.567355 28.953481 -0.353886 0.529216 -0.500577
H  4.825856 -0.277751 27.920641 0.689161 -0.132111 -0.284982
H  7.906582 0.023589 27.247047 -0.938169 -0.223160 0.265943
H  6.389033 0.589270 26.332169 -0.949382 1.379132 -0.906458
O  4.514153 10.244644 35.048143 0.281840 0.103690 -0.291065
C  5.155474 11.521306 35.278322 -2.340466 0.451380 0.795109
C  6.438255 11.513998 34.512739 1.064145 -1.077668 -0.904876
C  6.856243 9.954869 34.644107 -1.419843 1.572526 -0.194992
C  5.577963 9.249409 35.072049 -1.476388 -0.940435 0.245940
H  5.293376 11.633668 36.383117 0.432451 -0.007687 -0.429834
H  4.358816 12.290156 35.036760 0.947709 -0.532938 -0.250314
H  7.162044 12.152932 34.995744 0.585779 0.153082 0.593446
H  6.745971 14.029461 34.009802 -0.456169 -0.702830 -1.623030
H  7.608304 9.811463 35.364639 1.319757 -0.028333 1.059263
H  7.182937 9.557843 33.712788 0.518489 -0.255453 -1.072748
H  5.623662 8.841436 36.156440 0.060495 0.146250 -1.730344
H  5.236940 8.491333 34.273766 0.543372 0.541864 1.491290
O  4.956928 7.431246 24.790789 -1.797175 -0.352361 0.444473
C  7.238481 9.660405 27.474225 0.762415 1.246036 0.926679
C  5.944255 9.466508 26.772825 1.321130 -0.129944 0.319345
C  5.177125 8.235112 27.128999 -2.165940 0.158417 -0.380185
C  4.232360 7.994190 25.911323 0.482940 1.211865 1.734760
H  7.249059 10.661893 27.973178 -0.196076 -0.442715 -0.177919
H  6.197089 9.227963 25.670985 -0.730054 0.455474 0.178042
H  6.767541 11.525747 26.280542 0.806008 0.631433 -1.105562
H  5.356707 10.389245 26.843035 -0.517775 -0.332908 -0.348742
H  4.557885 8.414291 28.034550 0.329297 -0.129254 -0.143132
H  5.714762 7.321757 27.249505 0.999299 -0.447134 0.432449
H  3.864333 9.075686 25.748835 0.115787 -1.433765 -0.356402
H  3.356652 7.431079 26.303826 0.213780 -0.380187 -0.709374
O  5.858770 13.436450 26.628675 -1.629800 2.142881 0.079428
C  6.562904 13.527003 27.897168 0.475029 1.410275 0.293262
C  5.622580 14.262999 28.876582 2.894129 1.583487 -0.139845
C  4.523352 14.993740 28.109429 0.656360 -2.182709 -0.949037
C  4.917545 14.734269 26.631670 0.446288 -1.299443 1.054405
H  7.423736 14.205731 27.738392 0.142950 -0.395734 -0.125606
H  6.948575 12.561014 28.282360 -0.494060 0.146063 -0.488358
H  6.296011 14.863377 29.585056 -0.982843 -0.162889 -1.040476
H  5.190642 13.601564 29.508748 -1.554841 -2.472631 2.117966
H  4.459017 16.012064 28.411698 -0.465557 1.046623 -0.173324
H  3.620272 14.410582 28.286776 -0.525371 0.408005 0.306821
H  5.434332 15.643542 26.332653 0.625463 -0.072443 -0.835026
H  4.109244 14.392478 25.954398 0.167565 0.430937 0.303590
O  10.626136 15.774942 27.320790 0.635098 0.784168 -1.748419
C  10.605299 15.230874 28.614522 0.132001 -2.276235 2.596008
C  12.067745 15.208139 29.210150 -0.083008 -0.477363 -1.076331
C  12.759255 14.954471 27.842871 2.345792 2.031979 1.019559
C  11.996729 15.768680 26.780346 0.355788 -2.506835 0.164466
H  10.254298 14.142057 28.645015 0.295624 0.913762 -0.573264
H  9.867249 15.725054 29.259866 0.064402 0.598674 -0.246960
H  12.357024 14.363143 29.940560 -0.773867 1.279798 -0.882250
H  12.426124 16.198129 29.549848 -0.321990 -0.215776 0.310800
H  12.676070 13.939340 27.567014 -0.361368 -1.861949 -0.160094
H  13.878439 15.204751 27.941085 -1.356982 -0.062876 -0.396462
H  12.180803 15.054073 25.764945 -0.942445 1.673700 1.867788
H  12.426152 16.767629 26.637724 -0.237509 0.089874 -0.075375
O  9.657646 8.746752 30.170278 -0.473071 -0.763431 -1.072187
C  10.364244 7.554950 30.770395 0.333913 0.430814 0.028978
C  11.409473 8.246943 31.721262 -2.507061 -0.430180 -0.040236
C  10.772770 9.695125 31.944059 1.645662 -1.031475 1.257010
C  9.487130 9.733642 31.183830 -0.537764 0.678881 0.721553
H  10.761804 7.016425 29.837356 -0.579726 0.440122 1.486490
H  9.636771 6.948515 31.404989 0.570092 0.519434 -1.110169
H  12.348462 8.417268 31.276623 1.336270 -0.156087 -0.784044
H  11.560713 7.622841 32.613649 -0.132746 0.288600 -0.003671
H  11.626052 10.315286 31.613260 -0.868905 0.614052 -0.171202
H  10.597538 9.909976 32.997997 0.101767 0.030258 0.303143
H  9.305132 10.731659 30.798122 0.225865 0.312340 -1.095354
H  8.537348 9.607920 31.764623 0.708367 -0.808061 0.079682
Al 9.204296 -0.161043 30.565260 1.051566 0.635434 1.336518
Cl 9.506834 0.404417 28.457234 1.482221 -0.459422 -1.003023
Cl 7.634956 1.218128 30.567087 -2.236070 1.123515 0.617244